# vtk DataFile Version 2.0
VTK example
ASCII
DATASET UNSTRUCTURED_GRID
POINTS 1071 float
0.000000 0.000000 0.000000
0.000000 1.000000 0.000000
1.000000 1.000000 0.000000
1.000000 0.000000 0.000000
0.000000 0.000000 1.000000
0.000000 1.000000 1.000000
1.000000 1.000000 1.000000
1.000000 0.000000 1.000000
0.500000 0.000000 0.000000
0.500000 1.000000 0.000000
0.500000 1.000000 1.000000
0.500000 0.000000 1.000000
0.000000 0.500000 0.000000
0.000000 1.000000 0.500000
0.000000 0.500000 1.000000
0.000000 0.000000 0.500000
0.500000 0.500000 0.000000
0.500000 1.000000 0.500000
0.500000 0.500000 1.000000
0.500000 0.000000 0.500000
1.000000 0.500000 0.000000
1.000000 1.000000 0.500000
1.000000 0.500000 1.000000
1.000000 0.000000 0.500000
0.250000 0.000000 1.000000
0.250000 0.000000 0.000000
0.750000 0.000000 1.000000
0.750000 0.000000 0.000000
0.250000 1.000000 1.000000
0.250000 1.000000 0.000000
0.750000 1.000000 1.000000
0.750000 1.000000 0.000000
0.000000 0.250000 0.000000
0.000000 0.750000 0.000000
0.000000 1.000000 0.750000
0.000000 0.250000 1.000000
0.000000 0.000000 0.250000
0.500000 0.750000 0.000000
0.500000 1.000000 0.750000
0.500000 0.250000 1.000000
0.500000 0.000000 0.250000
1.000000 0.750000 0.000000
1.000000 1.000000 0.750000
1.000000 0.250000 1.000000
1.000000 0.000000 0.250000
0.375000 0.000000 1.000000
0.125000 0.000000 0.000000
0.875000 0.000000 1.000000
0.625000 0.000000 0.000000
0.375000 1.000000 1.000000
0.125000 1.000000 0.000000
0.875000 1.000000 1.000000
0.625000 1.000000 0.000000
0.000000 0.375000 0.000000
0.000000 0.875000 0.000000
0.000000 1.000000 0.875000
0.000000 0.125000 1.000000
0.000000 0.000000 0.125000
0.500000 0.875000 0.000000
0.500000 1.000000 0.875000
0.500000 0.125000 1.000000
0.500000 0.000000 0.125000
1.000000 0.875000 0.000000
1.000000 1.000000 0.875000
1.000000 0.125000 1.000000
1.000000 0.000000 0.125000
0.000000 1.000000 0.250000
0.000000 0.750000 1.000000
0.000000 0.000000 0.750000
0.500000 0.250000 0.000000
0.500000 1.000000 0.250000
0.500000 0.750000 1.000000
0.500000 0.000000 0.750000
1.000000 0.250000 0.000000
1.000000 1.000000 0.250000
1.000000 0.750000 1.000000
1.000000 0.000000 0.750000
0.125000 0.000000 1.000000
0.375000 0.000000 0.000000
0.625000 0.000000 1.000000
0.875000 0.000000 0.000000
0.125000 1.000000 1.000000
0.375000 1.000000 0.000000
0.625000 1.000000 1.000000
0.875000 1.000000 0.000000
0.000000 0.125000 0.000000
0.000000 0.625000 0.000000
0.000000 1.000000 0.625000
0.000000 0.375000 1.000000
0.000000 0.000000 0.375000
0.500000 0.625000 0.000000
0.500000 1.000000 0.625000
0.500000 0.375000 1.000000
0.500000 0.000000 0.375000
1.000000 0.625000 0.000000
1.000000 1.000000 0.625000
1.000000 0.375000 1.000000
1.000000 0.000000 0.375000
1.000000 0.375000 0.000000
1.000000 0.125000 0.000000
0.500000 0.000000 0.625000
0.500000 0.000000 0.875000
0.500000 0.625000 1.000000
0.500000 0.875000 1.000000
0.500000 1.000000 0.375000
0.500000 1.000000 0.125000
0.500000 0.375000 0.000000
0.500000 0.125000 0.000000
0.000000 0.000000 0.625000
0.000000 0.000000 0.875000
0.000000 0.625000 1.000000
0.000000 0.875000 1.000000
0.000000 1.000000 0.375000
0.000000 1.000000 0.125000
1.000000 1.000000 0.125000
1.000000 1.000000 0.375000
1.000000 0.875000 1.000000
1.000000 0.625000 1.000000
1.000000 0.000000 0.875000
1.000000 0.000000 0.625000
0.000000 0.500000 0.500000
0.500000 0.500000 0.500000
0.750000 0.750000 0.000000
0.250000 1.000000 0.250000
1.000000 0.500000 0.500000
0.750000 1.000000 0.750000
0.500000 0.291667 0.708333
0.250000 0.750000 0.000000
0.250000 1.000000 0.750000
0.250000 0.250000 1.000000
0.750000 0.500000 0.000000
0.250000 0.000000 0.250000
0.750000 0.250000 1.000000
0.750000 0.000000 0.250000
0.500000 0.291667 0.291667
0.750000 0.250000 0.000000
0.250000 1.000000 0.500000
0.500000 0.541667 0.750000
0.750000 1.000000 0.250000
0.250000 0.250000 0.000000
0.250000 0.750000 1.000000
0.250000 0.000000 0.750000
0.750000 0.750000 1.000000
0.750000 0.000000 0.750000
0.000000 0.708333 0.291667
0.000000 0.708333 0.708333
0.000000 0.291667 0.291667
0.000000 0.291667 0.708333
0.500000 0.708333 0.291667
1.000000 0.708333 0.291667
1.000000 0.708333 0.708333
1.000000 0.291667 0.291667
1.000000 0.291667 0.708333
0.250000 0.500000 0.000000
0.250000 0.500000 1.000000
0.250000 0.000000 0.500000
0.750000 0.500000 1.000000
0.750000 0.000000 0.500000
0.500000 0.220238 0.500000
0.500000 0.770833 0.770833
0.750000 1.000000 0.500000
1.000000 0.220238 0.500000
1.000000 0.500000 0.779762
1.000000 0.500000 0.220238
1.000000 0.779762 0.500000
0.500000 0.500000 0.220238
0.000000 0.220238 0.500000
0.000000 0.500000 0.779762
0.000000 0.500000 0.220238
0.000000 0.779762 0.500000
0.500000 0.739583 0.531250
0.500000 0.831439 0.168561
1.000000 0.831439 0.168561
1.000000 0.168561 0.831439
0.000000 0.168561 0.831439
0.800058 0.804812 0.625000
0.500000 0.398958 0.835417
0.750000 0.360119 0.431548
0.300058 0.195188 0.375000
0.000000 0.812500 0.157738
0.145833 0.854167 0.000000
0.283647 0.381387 0.213818
0.843750 0.625000 1.000000
0.500000 0.168561 0.168561
0.854167 0.000000 0.854167
0.656250 0.625000 1.000000
0.000000 0.168561 0.168561
0.000000 0.846329 0.360765
0.500000 0.168561 0.831439
0.354167 0.000000 0.854167
0.312500 0.875000 0.000000
0.699942 0.625000 0.195188
1.000000 0.831439 0.831439
0.156250 0.625000 0.000000
0.145833 1.000000 0.145833
0.645833 1.000000 0.145833
0.500000 0.141625 0.681397
0.255376 0.439893 0.741886
0.000000 0.153671 0.360765
0.300058 0.625000 0.195188
0.787539 0.209400 0.620128
1.000000 0.168561 0.168561
0.783460 0.230114 0.230114
0.645833 0.854167 1.000000
0.500000 0.647786 0.853516
0.243854 0.754966 0.607910
0.145833 0.000000 0.854167
0.145833 0.145833 0.000000
0.645833 0.000000 0.854167
0.000000 0.831439 0.831439
0.354167 0.145833 1.000000
0.000000 0.141625 0.681397
0.854167 1.000000 0.145833
0.312500 0.125000 0.000000
1.000000 0.153671 0.360765
0.375000 0.687500 1.000000
0.705878 0.695258 0.791262
0.812500 0.875000 1.000000
0.500000 0.153671 0.360765
1.000000 0.639235 0.846329
0.645833 1.000000 0.854167
0.800058 0.804812 0.375000
0.354167 0.854167 1.000000
0.216095 0.753422 0.373965
0.145833 0.000000 0.145833
0.156250 0.000000 0.375000
0.343750 0.375000 1.000000
0.750000 0.145833 0.854167
0.875000 0.000000 0.437500
0.705935 0.420067 0.708762
0.500000 0.562500 0.110119
0.203407 0.192426 0.192426
0.336524 0.784863 0.144175
0.854167 0.854167 0.000000
0.145833 0.854167 1.000000
0.635970 0.512134 0.862580
0.854167 1.000000 0.854167
0.305001 0.703751 0.803902
1.000000 0.360765 0.846329
0.500000 0.812500 0.890152
0.861742 0.267140 0.806913
0.765625 0.126879 0.375000
0.000000 0.360765 0.846329
0.000000 0.661070 0.147432
0.867188 0.000000 0.578125
0.000000 0.360765 0.153671
0.156250 0.375000 1.000000
0.500000 0.360765 0.153671
0.854167 0.145833 0.000000
0.296593 0.192426 0.807574
0.691345 0.819635 0.204488
0.625000 0.312500 1.000000
0.156250 1.000000 0.375000
0.500000 0.875417 0.562500
0.875000 0.000000 0.729167
0.375000 0.000000 0.312500
0.000000 0.639235 0.846329
0.155739 0.733312 0.203621
0.740251 0.855837 0.844418
1.000000 0.858375 0.681397
0.354167 0.000000 0.145833
0.500000 0.836022 0.396841
0.855151 0.603514 0.742145
0.136987 0.732860 0.806913
0.343750 0.625000 0.000000
0.625000 0.812500 0.000000
0.656250 0.000000 0.375000
0.836041 0.445974 0.845657
0.149949 0.133462 0.754115
1.000000 0.360765 0.153671
1.000000 0.639235 0.153671
0.875000 0.765625 1.000000
0.150636 0.273134 0.858552
0.854167 0.000000 0.145833
0.675861 0.401701 0.246947
0.000000 0.846329 0.639235
0.890625 0.000000 0.312500
0.148915 0.155975 0.445194
0.500000 0.522939 0.875351
0.819196 0.704241 0.881164
0.657520 0.821065 0.487912
0.849172 0.546900 0.139437
0.875000 0.270833 0.000000
0.712151 0.330552 0.855609
0.810825 0.124740 0.729531
0.159803 0.557449 0.838497
0.145833 1.000000 0.854167
0.875000 1.000000 0.562500
0.375000 0.000000 0.447917
0.645833 0.145833 0.000000
0.244656 0.848822 0.863979
0.625000 0.270833 0.000000
0.500000 0.784412 0.647233
0.656250 1.000000 0.625000
0.500000 0.699340 0.128430
0.875000 0.729167 0.000000
0.364975 0.493628 0.143825
0.381335 0.477350 0.804466
0.629871 0.502928 0.149104
0.156250 1.000000 0.625000
0.645833 0.000000 0.145833
0.694869 0.304631 0.131086
0.244472 0.266715 0.608227
0.868022 0.138516 0.507642
0.158910 0.529338 0.148611
0.343750 1.000000 0.625000
0.819940 0.784226 0.130919
0.354167 1.000000 0.145833
0.500000 0.888707 0.796605
0.363268 0.848573 0.624907
0.632812 0.171875 1.000000
0.177409 0.380426 0.423165
0.832460 0.385520 0.186043
0.656250 0.625000 0.000000
0.375000 1.000000 0.812500
0.377049 0.823906 0.821630
0.656250 0.000000 0.625000
0.343750 0.000000 0.625000
0.156250 0.375000 0.000000
0.145833 0.145833 1.000000
0.375000 1.000000 0.312500
0.350722 0.222236 0.126548
0.838808 0.569988 0.361654
0.375000 0.552083 1.000000
0.872671 0.206985 0.124643
0.750000 0.113544 0.134373
0.375000 1.000000 0.447917
0.850595 0.824224 0.892817
0.618612 0.738109 1.000000
0.276042 1.000000 0.380208
0.500000 0.431548 0.639881
0.867188 1.000000 0.421875
0.625000 1.000000 0.312500
0.000000 0.568452 0.639881
0.200838 0.548123 0.563140
0.875000 1.000000 0.729167
0.824904 0.779030 0.761561
0.694235 0.608206 0.581408
1.000000 0.858375 0.318603
1.000000 0.739367 0.890909
0.651780 0.210805 0.727397
0.854167 0.145833 1.000000
0.118612 1.000000 0.738109
0.500000 0.896722 0.679912
0.500000 0.110119 0.560010
0.218476 0.884763 0.324013
0.843750 0.375000 1.000000
0.128411 0.863989 0.454738
0.638190 0.187493 0.570952
0.000000 0.568452 0.360119
0.640490 0.143362 0.261022
0.500000 0.662075 0.696339
1.000000 0.153671 0.639235
0.382157 0.699765 0.613295
0.625000 0.000000 0.496094
0.273438 0.619792 1.000000
1.000000 0.719706 0.800326
0.900710 0.673898 0.813581
0.632861 0.840494 0.734672
0.628750 0.134288 0.432482
0.362111 0.801030 0.308400
0.150222 0.854831 0.685811
0.351577 0.508312 0.324046
0.137483 0.662533 1.000000
0.301649 0.552083 0.885472
0.156250 0.000000 0.625000
0.318757 0.871634 0.423947
[...]
POINT_DATA 1071
SCALARS resultData float 1
LOOKUP_TABLE testData
-0.000000
0.000000
-0.000000
0.000000
0.000000
-0.000000
0.000000
-0.000000
-0.000000
0.000000
-0.000000
0.000000
-0.000000
0.000000
0.000000
-0.000000
-0.000000
0.000000
0.000000
-0.000000
0.000000
-0.000000
-0.000000
0.000000
0.000000
-0.000000
0.000000
-0.000000
-0.000000
0.000000
-0.000000
0.000000
-0.000000
-0.000000
0.000000
0.000000
-0.000000
-0.000000
0.000000
0.000000
-0.000000
0.000000
-0.000000
-0.000000
0.000000
0.000000
-0.000000
0.000000
-0.000000
-0.000000
0.000000
-0.000000
0.000000
-0.000000
-0.000000
0.000000
0.000000
-0.000000
-0.000000
0.000000
0.000000
-0.000000
0.000000
-0.000000
-0.000000
0.000000
0.000000
0.000000
-0.000000
-0.000000
0.000000
0.000000
-0.000000
0.000000
-0.000000
-0.000000
0.000000
0.000000
-0.000000
0.000000
-0.000000
-0.000000
0.000000
-0.000000
0.000000
-0.000000
-0.000000
0.000000
0.000000
-0.000000
-0.000000
0.000000
0.000000
-0.000000
0.000000
-0.000000
-0.000000
0.000000
0.000000
0.000000
-0.000000
-0.000000
0.000000
0.000000
0.000000
0.000000
-0.000000
-0.000000
-0.000000
-0.000000
0.000000
0.000000
0.000000
0.000000
-0.000000
-0.000000
-0.000000
-0.000000
0.000000
0.000000
-0.000000
-0.015625
-0.000000
0.000000
0.000000
0.000000
-0.010671
-0.000000
0.000000
0.000000
-0.000000
-0.000000
0.000000
-0.000000
-0.010671
-0.000000
0.000000
-0.011637
0.000000
-0.000000
0.000000
-0.000000
0.000000
-0.000000
-0.000000
-0.000000
-0.000000
-0.000000
-0.010671
0.000000
0.000000
0.000000
0.000000
-0.000000
0.000000
-0.000000
0.000000
-0.000000
-0.010733
-0.007801
0.000000
0.000000
0.000000
0.000000
0.000000
-0.010733
-0.000000
-0.000000
-0.000000
-0.000000
-0.011990
-0.004910
0.000000
0.000000
-0.000000
-0.005880
-0.008243
-0.010563
-0.007536
-0.000000
-0.000000
-0.007864
0.000000
-0.004910
-0.000000
0.000000
-0.000000
-0.000000
-0.004910
-0.000000
-0.000000
-0.007764
0.000000
-0.000000
0.000000
0.000000
-0.006598
-0.008926
-0.000000
-0.007582
-0.006285
0.000000
-0.005084
0.000000
-0.007131
-0.008078
-0.000000
-0.000000
-0.000000
-0.000000
0.000000
-0.000000
0.000000
-0.000000
0.000000
0.000000
-0.007175
0.000000
-0.007498
0.000000
0.000000
-0.005944
0.000000
-0.007272
-0.000000
-0.000000
0.000000
-0.002837
-0.000000
-0.010220
-0.006029
-0.003902
-0.004647
-0.000000
0.000000
-0.006681
0.000000
-0.006872
0.000000
-0.003724
-0.003591
-0.004604
-0.000000
-0.000000
-0.000000
-0.000000
0.000000
-0.007498
-0.000000
-0.004938
-0.005305
0.000000
0.000000
-0.006710
-0.000000
-0.000000
-0.000000
-0.003796
-0.002844
0.000000
-0.000000
-0.008203
-0.005375
-0.003592
-0.000000
-0.000000
-0.000000
-0.004211
-0.002610
0.000000
0.000000
0.000000
-0.003004
-0.000000
-0.009624
-0.000000
-0.000000
-0.003651
-0.006805
-0.002997
-0.008442
-0.003432
-0.000000
-0.005505
-0.003270
-0.004467
0.000000
0.000000
-0.000000
-0.000000
-0.002663
-0.000000
-0.009653
0.000000
-0.005884
-0.000000
-0.006983
-0.009223
-0.007499
0.000000
-0.000000
-0.004998
-0.008390
-0.003184
-0.003893
0.000000
-0.002667
0.000000
-0.004006
-0.006978
0.000000
-0.007689
-0.004871
-0.000000
0.000000
-0.004934
-0.000000
-0.000000
-0.000000
0.000000
0.000000
-0.004229
-0.007738
0.000000
-0.001660
-0.001857
0.000000
-0.001748
0.000000
0.000000
-0.014132
0.000000
0.000000
-0.000000
-0.009653
0.000000
-0.004520
-0.012192
0.000000
0.000000
-0.007258
0.000000
0.000000
-0.005039
-0.006036
-0.003603
0.000000
-0.003069
-0.008478
-0.000000
-0.005402
-0.011827
0.000000
-0.011729
-0.000000
0.000000
0.000000
-0.002906
-0.006078
-0.006586
-0.007852
-0.003435
-0.012268
0.000000
-0.005304
-0.000000
-0.005987
-0.011473
-0.000000
-0.000000
-0.000000
-0.003016
-0.000000
-0.000000
-0.011178
-0.003478
0.000000
-0.002335
-0.003066
0.000000
-0.006918
-0.002967
-0.001532
-0.000000
-0.000000
0.000000
-0.014383
0.000000
-0.000000
0.000000
0.000000
0.000000
-0.002814
-0.010834
-0.005949
-0.002024
-0.003244
-0.007381
-0.001337
-0.007225
-0.003286
-0.000000
-0.011344
0.000000
-0.004704
-0.004514
-0.008925
-0.014199
-0.005810
-0.004862
0.000000
-0.008917
-0.005281
-0.009399
-0.007455
-0.003096
0.000000
-0.000000
-0.013363
-0.000000
-0.005913
-0.014259
-0.013804
0.000000
-0.007219
0.000000
-0.010592
-0.006072
0.000000
-0.009165
0.000000
-0.003925
-0.011097
0.000000
-0.000000
-0.001654
-0.009205
0.000000
-0.000000
-0.012666
-0.011554
-0.008165
-0.004269
0.000000
-0.003387
0.000000
-0.004308
-0.005959
-0.001557
0.000000
-0.013601
0.000000
0.000000
0.000000
0.000000
-0.004717
-0.005065
0.000000
-0.000975
-0.002112
-0.004781
0.000000
-0.002095
-0.004822
-0.003714
0.000000
-0.002864
0.000000
0.000000
-0.005909
-0.011745
-0.013329
-0.009949
0.000000
-0.001922
-0.000000
-0.003283
-0.010007
0.000000
-0.003502
0.000000
0.000000
-0.010788
-0.000000
-0.002508
-0.006384
-0.002511
-0.002819
-0.004136
-0.003289
-0.003771
-0.004599
0.000000
0.000000
-0.001711
-0.005181
-0.004404
-0.000000
-0.003866
-0.006225
-0.009468
0.000000
-0.007085
-0.010553
0.000000
-0.000000
0.000000
-0.004537
-0.005039
-0.007438
-0.002690
-0.004606
-0.002774
0.000000
0.000000
-0.007655
-0.001402
-0.000000
-0.000000
0.000000
-0.000000
0.000000
-0.007180
-0.001166
-0.000000
-0.013139
-0.011435
-0.003812
0.000000
-0.012445
-0.012653
-0.002892
-0.004191
0.000000
-0.000948
-0.012772
-0.000623
0.000000
-0.000000
-0.011799
-0.000000
-0.003490
-0.005328
0.000000
-0.001716
-0.003738
0.000000
0.000000
-0.004842
-0.000000
0.000000
-0.000000
-0.003874
-0.011033
-0.002087
0.000000
-0.010426
-0.012630
-0.003937
-0.005433
-0.011929
-0.004029
-0.000895
-0.002171
-0.003818
-0.004161
-0.007988
-0.000000
-0.004059
0.000000
-0.002064
-0.009106
-0.002235
0.000000
0.000000
0.000000
-0.008456
-0.002979
0.000000
-0.004484
-0.014095
-0.014576
-0.002309
-0.002822
-0.004852
-0.008551
-0.008948
-0.005712
-0.003833
-0.004571
-0.006082
-0.000000
-0.000000
-0.008851
-0.005988
-0.000000
-0.000000
-0.001240
0.000000
0.000000
-0.006633
-0.004076
-0.000000
-0.006153
0.000000
-0.011368
-0.000000
-0.004041
-0.008973
-0.012605
-0.009254
-0.000000
-0.004018
-0.007783
-0.000000
-0.003464
-0.007819
-0.009659
-0.007478
-0.011524
0.000000
-0.003135
-0.003706
-0.004682
0.000000
-0.005575
-0.009907
-0.002682
-0.000000
-0.001005
-0.000000
-0.009454
-0.009491
-0.008836
-0.004612
-0.005230
-0.010907
-0.004005
-0.007758
-0.003441
-0.012003
-0.007858
-0.002727
-0.000000
-0.005755
-0.000000
-0.009453
-0.000000
-0.008504
-0.008464
-0.005518
-0.006481
-0.008621
-0.010005
-0.009717
-0.005956
0.000000
0.000000
-0.005569
-0.006463
-0.005854
-0.008497
-0.010621
-0.005565
-0.003921
-0.000000
-0.006910
-0.004258
-0.000000
-0.006197
-0.008422
-0.010815
-0.008846
-0.000975
-0.008054
-0.006476
0.000000
-0.006903
-0.008310
-0.006554
-0.003021
-0.007272
-0.010082
-0.009895
-0.006676
-0.008363
-0.011188
-0.000000
-0.009362
-0.000000
-0.007439
-0.008602
-0.006089
-0.007764
-0.006327
-0.008984
-0.010576
-0.009914
-0.009489
-0.009341
-0.010831
-0.006643
-0.001902
-0.001447
-0.006990
-0.006951
-0.010998
-0.004229
-0.003335
-0.005896
-0.011955
-0.012267
0.000000
-0.008283
-0.012358
-0.008050
-0.009026
-0.004301
-0.010043
-0.008458
-0.004416
-0.013670
-0.008902
-0.010690
-0.007327
-0.014331
0.000000
-0.004386
-0.015213
-0.008546
-0.006564
-0.004090
-0.000000
-0.005293
-0.009874
-0.003201
-0.015287
-0.006357
-0.014419
0.000000
-0.014640
-0.002100
-0.010782
-0.002949
-0.008625
-0.002847
-0.005081
-0.010202
-0.006957
0.000000
-0.000000
0.000000
-0.003624
0.000000
-0.008976
0.000000
-0.008405
-0.014658
-0.000000
-0.007971
-0.004415
-0.014626
-0.004072
-0.003741
0.000000
0.000000
-0.005658
-0.001750
-0.001293
-0.000000
-0.003081
-0.012708
-0.014472
-0.014521
-0.014859
-0.012773
-0.012462
-0.013581
0.000000
-0.014002
-0.000000
0.000000
-0.011968
0.000000
-0.000000
-0.008160
-0.008987
0.000000
0.000000
0.000000
-0.015069
-0.000000
0.000000
-0.004266
-0.006314
0.000000
-0.004004
-0.001829
0.000000
-0.001881
0.000000
-0.010451
-0.011921
-0.015166
0.000000
-0.000000
-0.000789
-0.013378
-0.001610
-0.000000
-0.011934
-0.003741
-0.001214
-0.000000
-0.000000
-0.000000
0.000000
-0.002864
-0.001232
-0.014234
-0.014500
-0.013661
0.000000
-0.010759
-0.000966
-0.011430
-0.000000
-0.002717
-0.010370
-0.011412
-0.013448
-0.012067
-0.001155
-0.011739
-0.007119
-0.000000
0.000000
-0.002283
-0.008353
-0.010516
-0.009557
-0.005542
-0.009373
-0.009388
-0.008576
-0.004891
-0.008580
-0.007398
-0.006039
-0.003830
-0.008450
-0.003337
-0.004557
-0.003188
-0.004347
-0.004990
-0.004357
0.000000
-0.003013
-0.005713
-0.007448
-0.000000
-0.001421
0.000000
-0.001998
-0.003611
-0.001087
-0.004209
-0.009530
0.000000
-0.000000
-0.010544
-0.010564
-0.012849
-0.011882
0.000000
0.000000
-0.005095
0.000000
-0.004934
0.000000
-0.009968
-0.011737
-0.009861
-0.004619
-0.011221
-0.008850
-0.011001
0.000000
-0.009484
-0.012822
-0.012950
-0.011256
0.000000
-0.000000
-0.000000
-0.009522
-0.003974
-0.013758
-0.011676
0.000000
-0.009104
-0.005044
-0.011629
0.000000
-0.002630
-0.002657
-0.006309
0.000000
-0.008259
-0.005544
-0.005392
-0.008840
-0.012385
-0.008366
0.000000
-0.007449
-0.003232
-0.008582
0.000000
-0.005185
-0.011694
0.000000
-0.001821
0.000000
0.000000
-0.003540
0.000000
-0.009450
-0.007678
-0.004928
-0.003987
-0.002993
-0.009541
-0.002854
0.000000
-0.007339
0.000000
0.000000
-0.003491
-0.004217
-0.000000
-0.001761
-0.006690
0.000000
0.000000
-0.008003
-0.001076
-0.000000
-0.003065
0.000000
-0.000000
-0.000000
-0.000000
-0.002601
-0.004040
-0.001677
-0.000929
0.000000
-0.003093
-0.005279
-0.001397
-0.000000
-0.000000
-0.000000
-0.000000
-0.004336
-0.000000
0.000000
0.000000
0.000000
0.000000
-0.003013
-0.002083
-0.003869
-0.002429
0.000000
0.000000
-0.000000
0.000000
0.000000
-0.003044
-0.000000
-0.002234
-0.002306
0.000000
-0.000652
-0.002232
0.000000
-0.002118
-0.000000
-0.002235
-0.005704
-0.002275
-0.004311
0.000000
0.000000
-0.001102
-0.001681
-0.003531
-0.000000
-0.000000
0.000000
0.000000
-0.006903
0.000000
0.000000
-0.004284
-0.000000
0.000000
-0.001431
-0.000000
-0.004976
0.000000
-0.000000
0.000000
-0.002468
-0.001691
-0.001402
-0.001060
0.000000
0.000000
-0.002176
0.000000
-0.001028
-0.001170
-0.001703
0.000000
0.000000
-0.003369
-0.000000
0.000000
-0.002026
-0.001230
0.000000
-0.000865
-0.001494
0.000000
-0.001690
-0.000995
0.000000
0.000000
-0.002355
0.000000
0.000000
-0.003847
-0.003178
-0.004454
0.000000
-0.006117
-0.003557
-0.006527
0.000000
-0.001210
-0.004522
-0.002918
-0.007034
-0.003049
-0.006297
-0.003115
-0.002108
-0.004882
-0.005666
0.000000
-0.002547
-0.000000
0.000000
-0.001601
0.000000
-0.009055
-0.001916
