# vtk DataFile Version 2.0
VTK example
ASCII
DATASET UNSTRUCTURED_GRID
POINTS 1705 float
0.000000 0.000000 0.000000
0.000000 1.000000 0.000000
1.000000 1.000000 0.000000
1.000000 0.000000 0.000000
0.000000 0.000000 1.000000
0.000000 1.000000 1.000000
1.000000 1.000000 1.000000
1.000000 0.000000 1.000000
0.250000 0.250000 0.250000
0.250000 0.750000 0.250000
0.750000 0.750000 0.250000
0.750000 0.250000 0.250000
0.250000 0.250000 0.750000
0.250000 0.750000 0.750000
0.750000 0.750000 0.750000
0.750000 0.250000 0.750000
0.000000 0.500000 0.000000
0.500000 1.000000 0.000000
1.000000 0.500000 0.000000
0.500000 0.000000 0.000000
0.000000 0.500000 1.000000
0.500000 1.000000 1.000000
1.000000 0.500000 1.000000
0.500000 0.000000 1.000000
0.000000 1.000000 0.500000
0.000000 0.000000 0.500000
1.000000 1.000000 0.500000
1.000000 0.000000 0.500000
0.250000 0.500000 0.250000
0.500000 0.750000 0.250000
0.750000 0.500000 0.250000
0.500000 0.250000 0.250000
0.250000 0.500000 0.750000
0.500000 0.750000 0.750000
0.750000 0.500000 0.750000
0.500000 0.250000 0.750000
0.250000 0.750000 0.500000
0.250000 0.250000 0.500000
0.750000 0.750000 0.500000
0.750000 0.250000 0.500000
0.000000 0.250000 0.000000
0.000000 0.750000 0.000000
0.750000 1.000000 0.000000
1.000000 0.250000 0.000000
0.250000 0.000000 0.000000
0.000000 0.750000 1.000000
0.750000 1.000000 1.000000
1.000000 0.250000 1.000000
0.250000 0.000000 1.000000
0.000000 1.000000 0.750000
0.000000 0.000000 0.250000
1.000000 1.000000 0.750000
1.000000 0.000000 0.250000
0.250000 0.625000 0.250000
0.625000 0.750000 0.250000
0.750000 0.375000 0.250000
0.375000 0.250000 0.250000
0.250000 0.625000 0.750000
0.625000 0.750000 0.750000
0.750000 0.375000 0.750000
0.375000 0.250000 0.750000
0.250000 0.750000 0.625000
0.250000 0.250000 0.375000
0.750000 0.750000 0.625000
0.750000 0.250000 0.375000
0.000000 0.375000 0.000000
0.000000 0.875000 0.000000
0.875000 1.000000 0.000000
1.000000 0.125000 0.000000
0.125000 0.000000 0.000000
0.000000 0.875000 1.000000
0.875000 1.000000 1.000000
1.000000 0.125000 1.000000
0.125000 0.000000 1.000000
0.000000 1.000000 0.875000
0.000000 0.000000 0.125000
1.000000 1.000000 0.875000
1.000000 0.000000 0.125000
0.250000 0.687500 0.250000
0.687500 0.750000 0.250000
0.750000 0.312500 0.250000
0.312500 0.250000 0.250000
0.250000 0.687500 0.750000
0.687500 0.750000 0.750000
0.750000 0.312500 0.750000
0.312500 0.250000 0.750000
0.250000 0.750000 0.687500
0.250000 0.250000 0.312500
0.750000 0.750000 0.687500
0.750000 0.250000 0.312500
0.000000 0.437500 0.000000
0.000000 0.937500 0.000000
0.937500 1.000000 0.000000
1.000000 0.062500 0.000000
0.062500 0.000000 0.000000
0.000000 0.937500 1.000000
0.937500 1.000000 1.000000
1.000000 0.062500 1.000000
0.062500 0.000000 1.000000
0.000000 1.000000 0.937500
0.000000 0.000000 0.062500
1.000000 1.000000 0.937500
1.000000 0.000000 0.062500
0.250000 1.000000 0.000000
1.000000 0.750000 0.000000
0.750000 0.000000 0.000000
0.000000 0.250000 1.000000
0.250000 1.000000 1.000000
1.000000 0.750000 1.000000
0.750000 0.000000 1.000000
0.000000 1.000000 0.250000
0.000000 0.000000 0.750000
1.000000 1.000000 0.250000
1.000000 0.000000 0.750000
0.250000 0.375000 0.250000
0.375000 0.750000 0.250000
0.750000 0.625000 0.250000
0.625000 0.250000 0.250000
0.250000 0.375000 0.750000
0.375000 0.750000 0.750000
0.750000 0.625000 0.750000
0.625000 0.250000 0.750000
0.250000 0.750000 0.375000
0.250000 0.250000 0.625000
0.750000 0.750000 0.375000
0.750000 0.250000 0.625000
0.000000 0.125000 0.000000
0.000000 0.625000 0.000000
0.625000 1.000000 0.000000
1.000000 0.375000 0.000000
0.375000 0.000000 0.000000
0.000000 0.625000 1.000000
0.625000 1.000000 1.000000
1.000000 0.375000 1.000000
0.375000 0.000000 1.000000
0.000000 1.000000 0.625000
0.000000 0.000000 0.375000
1.000000 1.000000 0.625000
1.000000 0.000000 0.375000
0.250000 0.562500 0.250000
0.562500 0.750000 0.250000
0.750000 0.437500 0.250000
0.437500 0.250000 0.250000
0.250000 0.562500 0.750000
0.562500 0.750000 0.750000
0.750000 0.437500 0.750000
0.437500 0.250000 0.750000
0.250000 0.750000 0.562500
0.250000 0.250000 0.437500
0.750000 0.750000 0.562500
0.750000 0.250000 0.437500
0.000000 0.312500 0.000000
0.000000 0.812500 0.000000
0.812500 1.000000 0.000000
1.000000 0.187500 0.000000
0.187500 0.000000 0.000000
0.000000 0.812500 1.000000
0.812500 1.000000 1.000000
1.000000 0.187500 1.000000
0.187500 0.000000 1.000000
0.000000 1.000000 0.812500
0.000000 0.000000 0.187500
1.000000 1.000000 0.812500
1.000000 0.000000 0.187500
1.000000 0.625000 1.000000
1.000000 0.875000 1.000000
0.375000 1.000000 1.000000
0.125000 1.000000 1.000000
0.000000 0.375000 1.000000
0.000000 0.125000 1.000000
0.625000 0.000000 0.000000
0.875000 0.000000 0.000000
1.000000 0.625000 0.000000
1.000000 0.875000 0.000000
0.375000 1.000000 0.000000
0.125000 1.000000 0.000000
0.875000 0.000000 1.000000
0.625000 0.000000 1.000000
0.000000 1.000000 0.375000
0.000000 0.000000 0.625000
1.000000 1.000000 0.375000
1.000000 0.000000 0.625000
0.250000 0.312500 0.250000
0.250000 0.437500 0.250000
0.437500 0.750000 0.250000
0.750000 0.562500 0.250000
0.562500 0.250000 0.250000
0.250000 0.437500 0.750000
0.437500 0.750000 0.750000
0.750000 0.562500 0.750000
0.562500 0.250000 0.750000
0.250000 0.750000 0.437500
0.250000 0.250000 0.562500
0.750000 0.750000 0.437500
0.750000 0.250000 0.562500
0.000000 0.062500 0.000000
0.000000 0.187500 0.000000
0.000000 0.687500 0.000000
0.687500 1.000000 0.000000
1.000000 0.312500 0.000000
0.312500 0.000000 0.000000
0.000000 0.687500 1.000000
0.687500 1.000000 1.000000
1.000000 0.312500 1.000000
0.312500 0.000000 1.000000
0.000000 1.000000 0.687500
0.000000 0.000000 0.312500
1.000000 1.000000 0.687500
1.000000 0.000000 0.312500
1.000000 1.000000 0.312500
1.000000 1.000000 0.437500
1.000000 0.000000 0.562500
0.000000 1.000000 0.125000
0.000000 0.000000 0.875000
1.000000 1.000000 0.125000
1.000000 0.000000 0.875000
0.312500 0.750000 0.250000
0.750000 0.687500 0.250000
0.687500 0.250000 0.250000
0.250000 0.312500 0.750000
0.312500 0.750000 0.750000
0.750000 0.687500 0.750000
0.687500 0.250000 0.750000
0.250000 0.750000 0.312500
0.250000 0.250000 0.687500
0.750000 0.750000 0.312500
0.750000 0.250000 0.687500
0.000000 0.562500 0.000000
0.562500 1.000000 0.000000
1.000000 0.437500 0.000000
0.437500 0.000000 0.000000
0.000000 0.562500 1.000000
0.562500 1.000000 1.000000
1.000000 0.437500 1.000000
0.437500 0.000000 1.000000
0.000000 1.000000 0.562500
0.000000 0.000000 0.437500
1.000000 1.000000 0.562500
1.000000 0.000000 0.437500
0.000000 0.000000 0.562500
0.000000 0.000000 0.687500
0.000000 1.000000 0.437500
0.000000 1.000000 0.312500
0.562500 0.000000 1.000000
0.687500 0.000000 1.000000
0.187500 1.000000 0.000000
0.062500 1.000000 0.000000
0.437500 1.000000 0.000000
1.000000 0.812500 0.000000
0.812500 0.000000 0.000000
0.937500 0.000000 0.000000
0.562500 0.000000 0.000000
0.687500 0.000000 0.000000
0.000000 0.187500 1.000000
0.187500 1.000000 1.000000
0.062500 1.000000 1.000000
1.000000 0.812500 1.000000
1.000000 0.937500 1.000000
1.000000 0.562500 1.000000
1.000000 0.687500 1.000000
0.437500 1.000000 1.000000
0.312500 1.000000 1.000000
0.000000 0.062500 1.000000
0.000000 0.437500 1.000000
0.000000 0.312500 1.000000
1.000000 0.937500 0.000000
1.000000 0.562500 0.000000
1.000000 0.687500 0.000000
0.312500 1.000000 0.000000
0.812500 0.000000 1.000000
0.937500 0.000000 1.000000
1.000000 0.000000 0.687500
1.000000 0.000000 0.812500
1.000000 0.000000 0.937500
1.000000 1.000000 0.187500
1.000000 1.000000 0.062500
0.000000 0.000000 0.812500
0.000000 0.000000 0.937500
0.000000 1.000000 0.187500
0.000000 1.000000 0.062500
0.500000 0.500000 0.000000
0.000000 0.531250 0.531250
0.531250 0.468750 1.000000
0.000000 0.343750 0.297794
0.000000 0.189067 0.189067
0.500000 0.500000 0.250000
0.500000 0.250000 0.500000
1.000000 0.500000 0.500000
0.281250 0.281250 0.000000
1.000000 0.406250 0.257812
0.500000 0.000000 0.500000
0.250000 0.000000 0.531250
0.750000 0.500000 0.500000
1.000000 0.273438 0.656250
0.531250 1.000000 0.531250
0.297794 0.656250 1.000000
0.705966 0.705966 1.000000
0.765997 0.478802 1.000000
0.707386 0.000000 0.707386
1.000000 0.218750 0.825195
0.718750 1.000000 0.281250
0.500000 0.750000 0.500000
0.500000 0.500000 0.750000
0.250000 0.500000 0.500000
0.395833 0.395833 0.750000
0.750000 1.000000 0.656250
0.000000 0.468750 0.762500
0.000000 0.187564 0.406250
0.164062 0.164062 0.000000
1.000000 0.206007 0.206007
0.658178 0.250643 1.000000
0.710938 1.000000 0.470703
0.000000 0.247870 0.647745
0.395833 0.250000 0.395833
0.000000 0.762500 0.593750
0.000000 0.144516 0.545277
0.000000 0.333233 0.148361
0.542234 1.000000 0.765934
0.268382 1.000000 0.468750
0.468750 0.787035 1.000000
0.343750 0.000000 0.272978
0.252196 0.406250 1.000000
1.000000 0.593750 0.742188
0.520833 0.250000 0.375000
0.000000 0.099318 0.455104
0.604167 0.604167 0.750000
0.652079 0.393080 1.000000
0.000000 0.228098 0.297934
0.395833 0.250000 0.604167
0.750000 0.395833 0.604167
0.281250 0.000000 0.765625
0.840457 0.619993 1.000000
0.718750 0.281250 0.000000
0.141406 0.303906 0.000000
0.750000 0.531250 0.000000
0.550192 0.637748 1.000000
0.577060 1.000000 0.370295
0.281250 0.202962 1.000000
0.000000 0.298346 0.820540
0.820913 1.000000 0.820913
0.250000 0.604167 0.395833
0.389536 0.000000 0.631916
0.748737 0.000000 0.458649
0.604167 0.604167 0.250000
0.182769 0.000000 0.360695
1.000000 0.796199 0.781250
1.000000 0.718750 0.281250
1.000000 0.750000 0.531250
0.000000 0.402291 0.620467
1.000000 0.292269 0.441173
0.519013 0.000000 0.793677
0.750000 0.520833 0.625000
0.520833 0.375000 0.750000
0.635417 0.250000 0.364583
0.250000 0.531250 0.000000
0.750000 0.395833 0.395833
0.000000 0.110352 0.110352
0.229003 0.401672 0.000000
0.301698 0.828273 1.000000
0.604167 0.250000 0.604167
0.479167 0.625000 0.750000
0.000000 0.412280 0.875876
0.835938 1.000000 0.164062
0.000000 0.302424 0.505845
0.303906 0.141406 0.000000
0.905950 1.000000 0.094050
0.375000 0.520833 0.750000
[...]
POINT_DATA 1705
SCALARS resultData float 1
LOOKUP_TABLE testData
-0.000000
0.000000
-0.000000
0.000000
0.000000
-0.000000
0.000000
-0.000000
-0.000082
-0.000102
-0.000071
-0.000061
-0.000092
-0.000070
-0.000070
-0.000087
-0.000000
0.000000
0.000000
-0.000000
0.000000
-0.000000
-0.000000
0.000000
0.000000
-0.000000
-0.000000
0.000000
-0.008789
-0.008789
-0.008789
-0.008789
-0.008789
-0.008789
-0.008789
-0.008789
-0.008789
-0.008789
-0.008789
-0.008789
-0.000000
-0.000000
0.000000
0.000000
-0.000000
0.000000
-0.000000
-0.000000
0.000000
0.000000
-0.000000
-0.000000
0.000000
-0.008240
-0.008240
-0.008240
-0.008240
-0.008240
-0.008240
-0.008240
-0.008240
-0.008240
-0.008240
-0.008240
-0.008240
-0.000000
-0.000000
0.000000
0.000000
-0.000000
0.000000
-0.000000
-0.000000
0.000000
0.000000
-0.000000
-0.000000
0.000000
-0.007553
-0.007553
-0.007553
-0.007553
-0.007553
-0.007553
-0.007553
-0.007553
-0.007553
-0.007553
-0.007553
-0.007553
-0.000000
-0.000000
0.000000
0.000000
-0.000000
0.000000
-0.000000
-0.000000
0.000000
0.000000
-0.000000
-0.000000
0.000000
0.000000
0.000000
-0.000000
0.000000
-0.000000
-0.000000
0.000000
0.000000
-0.000000
-0.000000
0.000000
-0.008240
-0.008240
-0.008240
-0.008240
-0.008240
-0.008240
-0.008240
-0.008240
-0.008240
-0.008240
-0.008240
-0.008240
-0.000000
-0.000000
0.000000
0.000000
-0.000000
0.000000
-0.000000
-0.000000
0.000000
0.000000
-0.000000
-0.000000
0.000000
-0.008652
-0.008652
-0.008652
-0.008652
-0.008652
-0.008652
-0.008652
-0.008652
-0.008652
-0.008652
-0.008652
-0.008652
-0.000000
-0.000000
0.000000
0.000000
-0.000000
0.000000
-0.000000
-0.000000
0.000000
0.000000
-0.000000
-0.000000
0.000000
-0.000000
-0.000000
-0.000000
-0.000000
0.000000
0.000000
-0.000000
-0.000000
0.000000
0.000000
0.000000
0.000000
0.000000
0.000000
0.000000
-0.000000
-0.000000
0.000000
-0.007553
-0.008652
-0.008652
-0.008652
-0.008652
-0.008652
-0.008652
-0.008652
-0.008652
-0.008652
-0.008652
-0.008652
-0.008652
-0.000000
-0.000000
-0.000000
0.000000
0.000000
-0.000000
0.000000
-0.000000
-0.000000
0.000000
0.000000
-0.000000
-0.000000
0.000000
-0.000000
-0.000000
0.000000
0.000000
-0.000000
-0.000000
0.000000
-0.007553
-0.007553
-0.007553
-0.007553
-0.007553
-0.007553
-0.007553
-0.007553
-0.007553
-0.007553
-0.007553
-0.000000
0.000000
0.000000
-0.000000
0.000000
-0.000000
-0.000000
0.000000
0.000000
-0.000000
-0.000000
0.000000
-0.000000
-0.000000
0.000000
0.000000
0.000000
0.000000
0.000000
0.000000
0.000000
0.000000
-0.000000
-0.000000
-0.000000
-0.000000
0.000000
-0.000000
-0.000000
-0.000000
-0.000000
-0.000000
-0.000000
-0.000000
-0.000000
0.000000
0.000000
0.000000
0.000000
0.000000
0.000000
0.000000
0.000000
0.000000
0.000000
0.000000
0.000000
-0.000000
-0.000000
-0.000000
-0.000000
0.000000
0.000000
-0.000000
-0.000000
0.000000
-0.000000
-0.000000
-0.011719
-0.000029
0.000000
-0.000000
0.000000
-0.000000
-0.000000
-0.000029
0.000000
0.000000
0.000000
0.000000
0.000000
-0.000000
0.000000
0.000000
-0.000029
-0.011719
-0.000030
-0.010724
0.000000
-0.000000
-0.000000
-0.000000
0.000000
0.000000
0.000000
-0.000000
-0.000027
-0.000000
-0.000000
-0.000000
0.000000
0.000000
0.000000
-0.000000
0.000000
0.000000
-0.000026
-0.000000
-0.010724
0.000000
-0.000000
-0.000026
-0.000026
-0.000000
0.000000
-0.000000
-0.000000
-0.000000
0.000000
0.000000
0.000000
-0.000000
0.000000
-0.000027
-0.000000
-0.000000
-0.010724
-0.000000
0.000000
0.000000
0.000000
-0.000000
0.000000
-0.000000
-0.000026
-0.010967
-0.000024
-0.000000
-0.000026
-0.000000
-0.000000
0.000000
-0.000026
-0.010967
-0.000000
0.000000
-0.000000
-0.000000
0.000000
-0.010967
-0.000027
0.000000
-0.000000
0.000000
0.000000
-0.000000
0.000000
-0.000000
0.000000
0.000000
-0.000000
-0.000024
-0.000000
0.000000
-0.010724
-0.000000
0.000000
0.000000
-0.000000
-0.000026
0.000000
0.000000
-0.000000
0.000000
0.000000
-0.000000
-0.010724
0.000000
0.000000
-0.000000
0.000000
-0.000000
-0.000000
0.000000
-0.000029
-0.000000
0.000000
-0.000000
-0.000026
0.000000
0.000000
-0.000000
-0.000000
0.000000
-0.000000
-0.000000
-0.000000
0.000000
-0.000000
0.000000
-0.000000
0.000000
0.000000
0.000000
-0.000000
-0.010724
-0.010063
0.000000
0.000000
-0.010967
0.000000
0.000000
-0.000000
0.000000
0.000000
0.000000
-0.000000
0.000000
0.000000
-0.000000
0.000000
0.000000
0.000000
0.000000
0.000000
0.000000
0.000000
-0.000000
0.000000
-0.000000
0.000000
-0.000000
0.000000
-0.000000
0.000000
-0.000000
-0.000000
0.000000
-0.000000
0.000000
-0.000027
-0.000026
-0.000025
-0.000026
0.000000
-0.000026
0.000000
0.000000
-0.000000
-0.000000
0.000000
0.000000
-0.000027
0.000000
0.000000
-0.000000
0.000000
-0.000000
-0.000000
-0.000000
-0.000000
0.000000
-0.000000
-0.000000
0.000000
0.000000
0.000000
-0.000000
-0.000000
0.000000
-0.000000
-0.000000
0.000000
0.000000
-0.000000
0.000000
-0.000000
-0.000028
-0.000000
0.000000
0.000000
-0.000000
-0.000000
-0.000025
0.000000
-0.000000
0.000000
0.000000
-0.000000
-0.000000
-0.000000
-0.000000
0.000000
-0.000000
0.000000
-0.010063
-0.000000
-0.000000
0.000000
-0.000029
-0.000000
-0.000029
0.000000
-0.000000
0.000000
-0.000028
-0.000000
-0.000000
-0.000000
0.000000
0.000000
0.000000
-0.000000
-0.000000
0.000000
0.000000
-0.000000
-0.010802
-0.011210
-0.000000
0.000000
0.000000
0.000000
0.000000
-0.010802
-0.011210
0.000000
0.000000
0.000000
-0.000000
0.000000
0.000000
0.000000
0.000000
-0.000000
-0.000000
-0.000000
0.000000
-0.000027
-0.000025
-0.000028
-0.000000
-0.000000
0.000000
-0.000000
-0.000000
-0.000025
-0.000000
0.000000
0.000000
0.000000
0.000000
-0.000000
-0.000000
-0.000000
-0.000000
0.000000
-0.000000
-0.000000
-0.000000
-0.000000
-0.000000
-0.000000
0.000000
0.000000
-0.000000
-0.000000
-0.000000
-0.000000
-0.000000
-0.000000
-0.000000
-0.000000
0.000000
0.000000
-0.000000
0.000000
-0.000000
-0.000000
-0.000000
-0.000000
0.000000
0.000000
-0.000000
-0.000000
0.000000
-0.000000
0.000000
0.000000
-0.000000
0.000000
-0.000000
-0.000000
-0.000000
-0.000000
-0.000028
0.000000
0.000000
-0.000000
0.000000
-0.000000
0.000000
0.000000
-0.000000
0.000000
-0.000000
0.000000
-0.000000
0.000000
-0.000000
-0.000000
-0.000029
0.000000
0.000000
-0.000000
0.000000
-0.000000
-0.000000
-0.000000
0.000000
0.000000
0.000000
0.000000
0.000000
-0.000028
-0.000024
-0.000000
0.000000
0.000000
0.000000
0.000000
0.000000
-0.000000
0.000000
0.000000
-0.000000
0.000000
-0.000000
-0.000000
0.000000
-0.000000
-0.000000
-0.000000
-0.000000
0.000000
-0.000000
-0.000000
-0.000000
0.000000
0.000000
-0.000000
-0.000000
0.000000
0.000000
-0.000000
0.000000
0.000000
-0.000000
0.000000
0.000000
0.000000
0.000000
-0.000000
-0.000000
-0.000000
0.000000
0.000000
-0.000000
-0.000000
-0.000000
0.000000
0.000000
0.000000
-0.000000
-0.002699
-0.003171
-0.005119
-0.005428
-0.000000
-0.000957
-0.002507
-0.002727
-0.002885
-0.002758
-0.000025
-0.000941
-0.003017
-0.003962
-0.002536
-0.005069
-0.002999
-0.000022
-0.003005
-0.002484
-0.001618
-0.002712
-0.003074
-0.000025
-0.002087
-0.001996
-0.000022
-0.002280
-0.002919
-0.003163
-0.002759
-0.003667
-0.003137
-0.003297
-0.006164
-0.002810
-0.000025
-0.003070
-0.000024
-0.000023
-0.002112
-0.004808
-0.000026
-0.000000
-0.005297
-0.003367
-0.002676
-0.003602
-0.002861
0.000000
-0.002834
-0.003183
-0.000026
-0.000023
-0.001910
-0.002133
-0.003230
-0.002803
-0.002742
-0.003156
-0.005567
-0.000000
-0.002338
-0.000000
-0.005183
-0.002427
-0.004010
-0.002858
-0.001631
-0.003266
-0.010113
-0.002265
-0.005469
-0.002957
-0.000000
-0.002717
-0.002582
-0.009336
-0.004251
-0.004940
0.000000
-0.002225
-0.001517
-0.002822
-0.006038
-0.003008
-0.003153
-0.000024
-0.010030
-0.002982
-0.002759
-0.003022
-0.000022
-0.001350
-0.002662
-0.002334
-0.003746
-0.002809
-0.001473
-0.000025
-0.000027
-0.002839
-0.003636
-0.000028
0.000000
-0.000000
-0.002905
-0.002426
-0.002372
-0.004543
-0.000019
-0.000025
-0.003339
-0.000021
-0.002158
-0.006983
-0.010294
-0.002868
-0.003030
-0.001988
-0.000025
-0.006204
-0.000000
-0.003380
-0.002471
-0.000027
-0.002098
-0.002258
-0.002855
-0.003531
-0.002755
-0.005396
-0.000000
-0.000000
-0.006860
-0.004908
-0.000000
-0.005267
-0.000025
0.000000
0.000000
0.000000
-0.003100
-0.002120
-0.001614
-0.009336
-0.000026
-0.000023
0.000000
-0.002947
-0.002230
-0.005965
-0.009808
-0.002658
-0.000027
-0.000024
-0.004723
-0.001619
-0.000026
-0.004294
-0.001084
-0.000000
-0.004708
-0.010113
0.000000
-0.005632
-0.003389
-0.009286
-0.000022
-0.003845
-0.003274
-0.004206
-0.000022
-0.001126
-0.003103
-0.000022
-0.000000
-0.003781
0.000000
-0.000020
-0.000022
-0.000861
0.000000
-0.000000
-0.006313
-0.000023
-0.000000
0.000000
-0.001880
0.000000
-0.000782
-0.005498
-0.001927
0.000000
-0.003295
-0.000000
-0.009684
-0.003497
-0.004127
-0.010281
-0.000024
-0.003090
-0.001142
-0.003663
-0.002102
-0.000025
-0.003621
-0.003023
-0.009970
-0.000026
-0.002841
-0.009336
-0.004781
-0.003756
-0.000021
-0.000021
-0.002702
-0.003918
-0.000028
-0.005475
-0.004650
-0.000000
-0.003038
-0.000026
-0.003582
-0.001230
-0.002816
-0.003139
-0.010294
-0.005331
-0.000877
-0.003104
-0.003663
0.000000
-0.003745
-0.005932
-0.006280
-0.000019
0.000000
-0.009840
-0.003433
-0.002549
-0.000021
-0.002979
-0.002023
-0.003889
-0.000000
-0.001031
-0.004599
-0.002992
-0.000000
-0.001682
-0.000027
0.000000
-0.003155
-0.009582
0.000000
-0.001725
-0.002897
-0.000000
-0.007818
-0.006709
-0.000022
-0.008965
-0.002388
-0.000023
-0.002760
-0.001894
0.000000
-0.008123
-0.000000
-0.000026
-0.000024
-0.006189
-0.002405
-0.002128
-0.006204
0.000000
0.000000
0.000000
-0.000022
-0.002378
-0.009840
-0.000000
-0.007309
-0.009840
-0.001859
-0.003262
-0.000024
0.000000
-0.005018
-0.000025
-0.003879
-0.004386
-0.001751
-0.004582
-0.005385
-0.003300
-0.003789
-0.000020
0.000000
0.000000
-0.001257
-0.000020
0.000000
-0.002841
-0.000019
-0.003865
-0.007946
-0.000022
-0.000000
-0.004958
-0.002023
-0.003545
-0.000000
-0.000000
-0.000022
-0.010030
-0.008522
-0.005999
0.000000
0.000000
-0.003720
-0.009374
-0.003277
-0.004935
-0.004192
-0.003342
-0.001540
-0.004518
-0.008877
-0.002354
-0.000023
-0.008212
-0.000027
-0.006853
-0.000000
-0.010113
-0.005679
0.000000
-0.009888
-0.000020
0.000000
-0.000932
-0.002731
-0.004369
-0.000000
-0.003385
-0.004601
-0.000020
-0.005049
-0.003475
-0.004648
0.000000
-0.000000
-0.005052
-0.000019
-0.000027
-0.001692
-0.000024
-0.000000
-0.000000
-0.005147
-0.005665
-0.002075
0.000000
-0.000719
-0.006176
-0.004043
-0.000000
0.000000
-0.004568
0.000000
-0.002071
-0.004356
-0.001888
-0.007470
-0.002399
-0.000025
-0.006767
-0.004989
-0.000000
-0.000021
-0.002133
-0.006379
-0.000000
-0.000000
-0.000024
-0.000000
0.000000
-0.003797
-0.006445
-0.004339
-0.004036
0.000000
-0.001651
-0.005201
-0.006680
-0.004918
-0.000026
-0.005502
-0.000000
-0.004330
-0.003917
-0.002305
-0.002503
-0.002862
-0.001250
-0.004444
-0.010235
-0.000000
0.000000
-0.000895
-0.003717
-0.001023
-0.002648
-0.010364
0.000000
-0.002425
-0.004697
-0.002232
-0.000682
-0.000025
-0.007589
-0.000000
-0.001392
-0.000503
0.000000
-0.000018
-0.005306
-0.001638
-0.006388
-0.004445
0.000000
-0.009387
-0.000000
-0.000027
-0.004961
0.000000
-0.003533
-0.000021
0.000000
0.000000
-0.005351
-0.010294
-0.000022
-0.002147
-0.004383
-0.000000
-0.001915
0.000000
0.000000
-0.001211
-0.006955
-0.000000
-0.003025
-0.004779
-0.000000
-0.007507
-0.003111
-0.004173
-0.001134
-0.003930
-0.004379
-0.002680
0.000000
-0.003881
-0.000000
-0.002376
-0.000974
-0.001529
-0.006152
-0.009878
0.000000
-0.000000
-0.002713
0.000000
0.000000
-0.002182
-0.000022
-0.003514
-0.000000
-0.000784
0.000000
-0.002366
-0.000025
-0.003599
-0.003800
-0.000000
-0.000000
-0.003360
-0.001349
-0.004081
-0.004653
-0.002033
-0.010062
-0.003325
-0.002805
0.000000
-0.005299
-0.000000
-0.002940
-0.001539
-0.002646
-0.000025
-0.000000
0.000000
0.000000
-0.000000
-0.000023
-0.002251
-0.000025
-0.002225
-0.001999
-0.000953
-0.004433
-0.006454
-0.000565
0.000000
-0.003828
-0.000000
-0.002958
-0.000000
-0.000000
0.000000
0.000000
-0.000000
0.000000
-0.000000
-0.003751
-0.000025
-0.001474
-0.003931
-0.002405
-0.000020
-0.001879
-0.005179
-0.000676
-0.004212
-0.002533
-0.001610
-0.000301
-0.000000
-0.007728
-0.000000
-0.003255
-0.001599
-0.000871
-0.001727
-0.004759
-0.000022
0.000000
-0.002237
-0.000019
-0.001486
-0.001104
-0.004955
-0.003553
-0.000000
-0.000024
-0.001096
-0.002218
-0.002907
-0.001968
-0.000000
-0.004281
0.000000
0.000000
-0.000023
-0.000025
-0.002393
-0.004001
-0.003659
0.000000
-0.007639
-0.003474
-0.002203
-0.003690
-0.002175
-0.002246
-0.000000
-0.000021
0.000000
0.000000
-0.004974
-0.001770
-0.000021
-0.000021
-0.001117
-0.002402
-0.000000
-0.002023
0.000000
-0.005009
-0.002689
-0.003385
-0.002284
-0.007012
-0.000866
-0.000608
-0.002302
-0.000000
0.000000
-0.000024
-0.000019
-0.000733
-0.000000
-0.005344
-0.001191
-0.000681
-0.003012
-0.000021
0.000000
-0.001243
-0.000000
-0.002210
-0.003449
-0.003962
-0.001513
-0.000000
-0.000000
-0.000022
-0.001090
-0.000026
0.000000
-0.000491
-0.000000
0.000000
-0.000996
-0.007631
-0.004434
-0.001079
-0.002376
-0.000000
-0.003701
-0.001354
-0.000935
-0.003428
-0.000022
-0.001727
-0.006181
-0.000889
-0.000000
-0.001475
-0.000020
-0.000024
0.000000
-0.005922
-0.006919
-0.000000
-0.002784
-0.000026
-0.002280
-0.004067
-0.000022
-0.006575
-0.002105
-0.002167
-0.004389
-0.000953
-0.000023
-0.002673
-0.002050
-0.000000
-0.000028
0.000000
-0.000015
-0.000019
0.000000
-0.006912
0.000000
-0.010299
-0.000027
-0.003509
-0.006190
-0.003920
-0.002750
-0.009764
-0.006089
-0.003947
-0.001409
-0.004132
-0.000000
-0.003226
0.000000
-0.002009
-0.000023
-0.004671
-0.000183
-0.001442
-0.006674
-0.001352
-0.002004
-0.002030
0.000000
-0.003997
-0.000000
0.000000
-0.000020
-0.004086
-0.005184
-0.000027
-0.004591
-0.000000
-0.003518
-0.001206
-0.005175
-0.003353
0.000000
-0.005861
-0.000000
-0.000020
-0.000020
-0.002689
-0.003898
-0.006621
-0.002919
-0.002009
-0.002096
0.000000
-0.000030
-0.000000
-0.005375
0.000000
-0.001329
-0.004333
-0.002893
-0.006158
-0.002698
-0.002437
-0.000000
-0.002591
-0.005006
-0.001721
-0.006884
-0.000020
-0.000022
-0.003612
0.000000
-0.000000
-0.000783
-0.001365
-0.001357
-0.001505
-0.001105
-0.001082
-0.002606
-0.000029
0.000000
-0.001664
-0.001429
-0.004100
-0.001113
-0.000801
-0.007460
-0.000734
-0.000020
-0.008678
-0.000020
-0.002795
0.000000
-0.000029
-0.000028
-0.006607
0.000000
-0.006105
-0.000027
-0.000028
0.000000
0.000000
-0.001584
-0.002090
-0.000000
-0.003873
0.000000
0.000000
-0.003157
-0.003151
-0.000020
-0.000000
-0.000000
-0.000021
-0.001517
-0.000000
-0.005309
-0.000946
-0.000770
-0.002879
-0.002208
-0.003253
-0.001080
-0.000027
-0.001816
-0.004907
-0.002397
-0.002344
-0.004663
-0.001789
-0.001403
-0.002131
-0.001444
-0.000027
-0.000027
-0.002263
-0.002200
0.000000
-0.004459
-0.005703
-0.002394
-0.003948
-0.000000
-0.003873
-0.001905
-0.001419
-0.002146
-0.002796
-0.000028
-0.000027
-0.002939
-0.001510
-0.000026
-0.000614
-0.000935
-0.002789
-0.003725
-0.000029
-0.000673
-0.000021
0.000000
-0.001756
-0.009330
-0.002181
-0.000020
0.000000
-0.000037
-0.000000
-0.000019
-0.003553
-0.001419
-0.002165
0.000000
0.000000
-0.005990
0.000000
-0.003811
-0.005192
-0.004667
0.000000
-0.000000
-0.004265
-0.000948
-0.000022
-0.001054
-0.007877
-0.002027
0.000000
0.000000
-0.009510
-0.000018
-0.000023
-0.000021
0.000000
-0.000503
-0.001958
-0.000000
0.000000
-0.001769
-0.006131
-0.003471
-0.004480
0.000000
-0.000022
-0.011148
-0.001601
0.000000
-0.000023
-0.000000
0.000000
0.000000
-0.000713
-0.000028
-0.001463
-0.001674
-0.002503
-0.000000
-0.002433
-0.001493
-0.002283
-0.001859
-0.000000
-0.001579
-0.001897
-0.000000
-0.000029
-0.000027
-0.007767
-0.000020
-0.001867
-0.001501
-0.002969
-0.000023
-0.000022
-0.008282
-0.004762
-0.001311
-0.000934
-0.004404
-0.000028
-0.003686
-0.000000
-0.000222
-0.002757
-0.002066
-0.001965
-0.007219
-0.000018
-0.000528
-0.000657
-0.000429
0.000000
-0.001473
0.000000
-0.000029
-0.001656
-0.011443
-0.011531
-0.001062
-0.000291
-0.001831
-0.000551
0.000000
-0.002293
-0.000000
-0.000214
-0.002569
-0.001922
-0.002018
-0.000020
-0.000017
-0.007655
-0.007981
-0.002032
-0.000024
-0.001951
-0.000000
-0.000000
-0.001788
-0.000019
-0.007830
-0.000000
-0.001326
-0.002055
-0.000018
-0.011108
-0.000028
-0.001984
-0.001608
-0.002046
0.000000
-0.002705
-0.004512
-0.000021
-0.002131
-0.000021
0.000000
-0.000020
-0.011436
-0.000688
-0.000022
-0.000028
-0.001913
-0.002076
-0.000133
-0.003275
-0.002774
-0.002470
-0.004064
-0.000024
-0.000023
-0.008391
-0.000022
-0.000021
-0.008919
-0.000025
-0.006028
-0.002779
0.000000
0.000000
-0.002983
-0.000027
-0.000026
-0.001050
-0.000026
-0.001468
-0.000024
0.000000
-0.000187
-0.001248
-0.000027
-0.000026
-0.002058
0.000000
-0.000028
-0.001471
-0.001881
-0.002028
-0.000000
-0.000000
-0.001596
-0.000025
-0.001911
-0.001910
-0.001699
-0.000000
CELL_DATA 8063
SCALARS region int 1
LOOKUP_TABLE mat
         0
         0
         0
         0
         0
         0
         1
         0
         0
         0
         0
         0
         0
         1
         0
         1
         1
         0
         0
         0
         0
         0
         0
         0
         0
         1
         0
         0
         0
         0
         0
         0
         0
         0
         0
         0
         0
         0
         0
         0
         0
         0
         0
         0
         0
         0
         0
         1
         0
         0
         1
         0
         0
         0
         0
         0
         0
         0
         0
         0
         0
         1
         0
         1
         0
         1
         0
         0
         0
         0
         0
         0
         0
         1
         0
         0
         0
         0
         0
         0
         0
         1
         0
         0
         0
         0
         1
         1
         0
         1
         0
         1
         0
         0
         0
         0
         0
         1
         0
         0
         0
         0
         0
         0
         0
         1
         1
         0
         0
         0
         0
         0
         1
         0
         0
         0
         0
         0
         0
         0
         0
         1
         0
         0
         0
         0
         0
         0
         0
         0
         0
         0
         0
         0
         1
         1
         0
         0
         0
         0
         1
         0
         0
         0
         1
         0
         0
         0
         1
         0
         0
         0
         0
         0
         0
         0
         0
         0
         0
         1
         0
         0
         0
         0
         1
         0
         0
         0
         0
         0
         0
         0
         0
         0
         0
         1
         0
         0
         0
         0
         1
         0
         0
         0
         0
         0
         0
         1
         0
         0
         1
         0
         0
         0
         0
         0
         0
         1
         0
         0
         0
         0
         0
         1
         0
         0
         0
         1
         0
         0
         1
         0
         0
         1
         0
         0
         1
         0
         1
         0
         0
         0
         0
         0
         0
         0
         0
         0
         0
         1
         1
         1
         0
         0
         0
         0
         0
         0
         0
         0
         1
         0
         0
         0
         0
         0
         0
         0
         0
         0
         0
         0
         0
         0
         0
         1
         0
         0
         1
         0
         0
         1
         0
         0
         0
         0
         0
         0
         0
         1
         0
         0
         0
         0
         0
         0
         0
         0
         0
         0
         0
         0
         0
         0
         1
         0
         0
         1
         1
         0
         0
         0