# vtk DataFile Version 2.0
VTK example
ASCII
DATASET UNSTRUCTURED_GRID
POINTS 1708 float
0.000000 0.000000 0.000000
0.000000 1.000000 0.000000
1.000000 1.000000 0.000000
1.000000 0.000000 0.000000
0.000000 0.000000 1.000000
0.000000 1.000000 1.000000
1.000000 1.000000 1.000000
1.000000 0.000000 1.000000
0.000000 1.000000 0.500000
0.500000 1.000000 1.000000
0.000000 0.500000 0.000000
0.500000 0.000000 1.000000
0.000000 0.000000 0.500000
0.500000 1.000000 0.000000
0.000000 0.500000 1.000000
1.000000 0.500000 1.000000
1.000000 1.000000 0.500000
1.000000 0.000000 0.500000
1.000000 0.500000 0.000000
0.500000 0.000000 0.000000
0.000000 1.000000 0.250000
0.000000 1.000000 0.750000
0.750000 1.000000 1.000000
0.000000 0.250000 0.000000
0.250000 0.000000 1.000000
0.000000 0.000000 0.250000
0.750000 1.000000 0.000000
0.000000 0.750000 1.000000
1.000000 0.250000 1.000000
1.000000 1.000000 0.750000
1.000000 0.000000 0.250000
1.000000 0.750000 0.000000
0.250000 0.000000 0.000000
0.000000 1.000000 0.375000
0.000000 1.000000 0.875000
0.875000 1.000000 1.000000
0.000000 0.125000 0.000000
0.125000 0.000000 1.000000
0.000000 0.000000 0.125000
0.875000 1.000000 0.000000
0.000000 0.875000 1.000000
1.000000 0.125000 1.000000
1.000000 1.000000 0.875000
1.000000 0.000000 0.125000
1.000000 0.875000 0.000000
0.125000 0.000000 0.000000
0.000000 1.000000 0.437500
0.000000 1.000000 0.937500
0.937500 1.000000 1.000000
0.000000 0.062500 0.000000
0.062500 0.000000 1.000000
0.000000 0.000000 0.062500
0.937500 1.000000 0.000000
0.000000 0.937500 1.000000
1.000000 0.062500 1.000000
1.000000 1.000000 0.937500
1.000000 0.000000 0.062500
1.000000 0.937500 0.000000
0.062500 0.000000 0.000000
0.250000 1.000000 1.000000
0.000000 0.750000 0.000000
0.750000 0.000000 1.000000
0.000000 0.000000 0.750000
0.250000 1.000000 0.000000
0.000000 0.250000 1.000000
1.000000 0.750000 1.000000
1.000000 1.000000 0.250000
1.000000 0.000000 0.750000
1.000000 0.250000 0.000000
0.750000 0.000000 0.000000
0.000000 1.000000 0.125000
0.000000 1.000000 0.625000
0.625000 1.000000 1.000000
0.000000 0.375000 0.000000
0.375000 0.000000 1.000000
0.000000 0.000000 0.375000
0.625000 1.000000 0.000000
0.000000 0.625000 1.000000
1.000000 0.375000 1.000000
1.000000 1.000000 0.625000
1.000000 0.000000 0.375000
1.000000 0.625000 0.000000
0.375000 0.000000 0.000000
0.000000 1.000000 0.312500
0.000000 1.000000 0.812500
0.812500 1.000000 1.000000
0.000000 0.187500 0.000000
0.187500 0.000000 1.000000
0.000000 0.000000 0.187500
0.812500 1.000000 0.000000
0.000000 0.812500 1.000000
1.000000 0.187500 1.000000
1.000000 1.000000 0.812500
1.000000 0.000000 0.187500
1.000000 0.812500 0.000000
0.187500 0.000000 0.000000
1.000000 0.625000 1.000000
1.000000 0.875000 1.000000
0.000000 0.375000 1.000000
0.375000 1.000000 0.000000
0.000000 0.000000 0.625000
0.000000 0.000000 0.875000
0.625000 0.000000 1.000000
0.875000 0.000000 1.000000
0.000000 0.625000 0.000000
0.375000 1.000000 1.000000
0.125000 1.000000 1.000000
1.000000 1.000000 0.125000
1.000000 1.000000 0.375000
1.000000 0.000000 0.625000
1.000000 0.125000 0.000000
1.000000 0.375000 0.000000
0.625000 0.000000 0.000000
0.000000 1.000000 0.187500
0.000000 1.000000 0.687500
0.687500 1.000000 1.000000
0.000000 0.312500 0.000000
0.312500 0.000000 1.000000
0.000000 0.000000 0.312500
0.687500 1.000000 0.000000
0.000000 0.687500 1.000000
1.000000 0.312500 1.000000
1.000000 1.000000 0.687500
1.000000 0.000000 0.312500
1.000000 0.687500 0.000000
0.312500 0.000000 0.000000
0.437500 1.000000 1.000000
0.062500 1.000000 1.000000
0.187500 1.000000 1.000000
1.000000 1.000000 0.187500
1.000000 1.000000 0.437500
1.000000 0.000000 0.562500
1.000000 0.062500 0.000000
1.000000 0.187500 0.000000
1.000000 0.437500 0.000000
0.562500 0.000000 0.000000
0.000000 0.875000 0.000000
0.125000 1.000000 0.000000
0.000000 0.125000 1.000000
1.000000 0.000000 0.875000
0.875000 0.000000 0.000000
0.000000 1.000000 0.062500
0.000000 1.000000 0.562500
0.562500 1.000000 1.000000
0.000000 0.437500 0.000000
0.437500 0.000000 1.000000
0.000000 0.000000 0.437500
0.562500 1.000000 0.000000
0.000000 0.562500 1.000000
1.000000 0.437500 1.000000
1.000000 1.000000 0.562500
1.000000 0.000000 0.437500
1.000000 0.562500 0.000000
0.437500 0.000000 0.000000
0.000000 0.562500 0.000000
0.812500 0.000000 1.000000
0.937500 0.000000 1.000000
0.562500 0.000000 1.000000
0.000000 0.000000 0.812500
0.000000 0.000000 0.937500
0.000000 0.000000 0.562500
0.437500 1.000000 0.000000
0.312500 1.000000 0.000000
1.000000 0.812500 1.000000
1.000000 0.937500 1.000000
1.000000 0.562500 1.000000
1.000000 0.687500 1.000000
0.000000 0.437500 1.000000
0.000000 0.312500 1.000000
0.000000 0.000000 0.687500
0.687500 0.000000 1.000000
0.000000 0.687500 0.000000
0.312500 1.000000 1.000000
1.000000 1.000000 0.062500
1.000000 1.000000 0.312500
1.000000 0.000000 0.687500
1.000000 0.312500 0.000000
0.687500 0.000000 0.000000
0.812500 0.000000 0.000000
0.937500 0.000000 0.000000
1.000000 0.000000 0.812500
0.000000 0.187500 1.000000
0.000000 0.062500 1.000000
0.000000 0.812500 0.000000
0.000000 0.937500 0.000000
0.187500 1.000000 0.000000
0.062500 1.000000 0.000000
1.000000 0.000000 0.937500
0.656250 0.656250 1.000000
0.406250 0.000000 0.593750
0.656250 0.000000 0.721154
0.000000 0.468750 0.468750
1.000000 0.500000 0.500000
0.468750 0.531250 0.000000
0.343750 0.000000 0.793269
1.000000 0.593750 0.257812
0.250000 0.656250 0.000000
0.531250 1.000000 0.531250
0.766667 1.000000 0.531250
0.702206 0.343750 0.000000
1.000000 0.707386 0.707386
0.000000 0.281250 0.270833
0.279412 1.000000 0.656250
0.000000 0.705966 0.294034
0.000000 0.406250 0.731618
1.000000 0.406250 0.742188
0.343750 0.343750 1.000000
0.531250 1.000000 0.766667
0.781250 0.179543 0.000000
0.468750 0.249730 0.000000
0.515793 0.000000 0.825650
0.648958 1.000000 0.648958
0.291636 1.000000 0.364688
0.184867 1.000000 0.815133
1.000000 0.793993 0.206007
0.000000 0.208914 0.656250
0.781250 1.000000 0.800943
1.000000 0.202599 0.718750
0.593750 0.261364 1.000000
0.783300 1.000000 0.665591
0.281250 0.176136 1.000000
0.281250 0.828125 0.000000
0.727898 0.614827 0.000000
0.878140 1.000000 0.585649
0.733599 1.000000 0.266401
0.537633 0.761223 0.000000
0.468750 0.000000 0.299342
1.000000 0.250000 0.468750
0.872143 1.000000 0.456523
0.193182 0.468750 1.000000
0.201923 0.000000 0.593750
1.000000 0.748527 0.456965
0.829537 0.000000 0.718750
1.000000 0.395508 0.320312
0.361068 1.000000 0.812412
1.000000 0.281250 0.179010
0.000000 0.173419 0.826581
0.416017 0.583983 1.000000
0.531250 1.000000 0.648958
0.469719 1.000000 0.877185
0.329005 0.479172 1.000000
1.000000 0.834989 0.599759
0.725233 0.808201 0.000000
0.424191 1.000000 0.707812
0.281250 1.000000 0.181153
0.000000 0.160863 0.160863
1.000000 0.639709 0.567678
0.650027 0.710459 0.000000
0.389852 0.719601 0.000000
0.000000 0.319522 0.851888
1.000000 0.741437 0.558831
0.272129 1.000000 0.759488
0.877308 1.000000 0.877308
0.797590 0.281250 1.000000
0.000000 0.725068 0.568364
1.000000 0.148786 0.579053
0.170665 0.000000 0.781250
1.000000 0.828916 0.828916
0.000000 0.100351 0.899649
0.000000 0.235460 0.902802
0.233682 0.000000 0.281250
1.000000 0.379302 0.449963
0.250822 0.403783 0.000000
0.107722 1.000000 0.892278
0.468750 0.789823 1.000000
1.000000 0.879357 0.120643
1.000000 0.124718 0.455380
0.404839 0.390490 0.000000
0.000000 0.628895 0.773486
0.140762 1.000000 0.681317
0.657437 1.000000 0.775146
0.610051 0.870098 0.000000
0.882064 0.117936 0.000000
0.751901 1.000000 0.398605
0.000000 0.828049 0.171951
0.736880 0.000000 0.468750
0.547380 0.633001 0.000000
0.651810 0.000000 0.861830
1.000000 0.717095 0.321673
1.000000 0.598844 0.399023
1.000000 0.455605 0.165282
0.614314 0.167060 0.000000
0.559501 0.405156 0.000000
0.567441 0.000000 0.905245
0.677496 0.482848 0.000000
0.862211 1.000000 0.315965
0.147689 0.763630 0.000000
0.806818 0.531250 1.000000
0.365662 1.000000 0.513829
0.447330 0.000000 0.716167
0.881145 1.000000 0.734764
0.375024 1.000000 0.616826
0.192996 1.000000 0.506590
0.656250 0.829545 1.000000
1.000000 0.389317 0.596394
1.000000 0.267182 0.613658
1.000000 0.901195 0.901195
0.823864 0.718750 1.000000
1.000000 0.520637 0.635438
1.000000 0.508040 0.331601
0.699355 1.000000 0.883978
0.000000 0.270922 0.468391
1.000000 0.567878 0.820486
0.484358 0.875181 0.000000
0.648958 1.000000 0.531250
0.692933 0.238158 0.000000
0.323091 0.530253 0.000000
0.795023 0.000000 0.857800
1.000000 0.202829 0.317107
0.547452 0.880715 1.000000
1.000000 0.669985 0.139583
0.374163 0.888951 0.000000
1.000000 0.822223 0.714080
0.849575 0.313560 0.000000
1.000000 0.103103 0.351971
0.000000 0.900620 0.099380
1.000000 0.856227 0.360646
1.000000 0.105492 0.675944
1.000000 0.508498 0.737091
1.000000 0.299798 0.280858
0.582643 0.465511 1.000000
0.274108 1.000000 0.887599
1.000000 0.291098 0.846266
0.000000 0.344646 0.596889
0.849336 0.000000 0.569241
0.487363 0.343070 0.000000
1.000000 0.142458 0.142458
0.000000 0.496948 0.221293
0.477964 0.442177 0.000000
0.263244 0.000000 0.700328
0.632769 0.575542 0.000000
0.204233 0.204233 0.000000
0.584336 0.279226 0.000000
0.304087 0.000000 0.605899
0.000000 0.140757 0.529590
0.581786 0.000000 0.558286
0.271658 0.000000 0.442973
0.000000 0.234825 0.560639
0.000000 0.559162 0.615684
0.198254 1.000000 0.603333
0.096876 1.000000 0.769958
0.464302 1.000000 0.371927
0.116017 0.000000 0.883983
0.000000 0.306957 0.695571
0.863661 0.403982 1.000000
0.142155 0.142155 1.000000
0.000000 0.610896 0.482568
0.000000 0.294752 0.135172
0.000000 0.142184 0.302192
0.298013 0.736299 0.000000
0.382195 1.000000 0.267502
0.904149 0.000000 0.652565
0.000000 0.370007 0.374522
0.000000 0.491544 0.346012
0.469221 0.000000 0.453280
1.000000 0.775587 0.102237
0.117392 0.000000 0.676013
0.741660 0.000000 0.631047
0.000000 0.369785 0.497069
0.576649 0.742898 1.000000
0.000000 0.824769 0.423592
0.000000 0.381343 0.212293
0.450978 0.169329 1.000000
0.156463 1.000000 0.280276
0.847618 1.000000 0.162186
0.000000 0.106057 0.629930
0.155262 0.529707 0.000000
[...]
POINT_DATA 1708
SCALARS resultData float 1
LOOKUP_TABLE testData
-0.000000
0.000000
-0.000000
0.000000
0.000000
-0.000000
0.000000
-0.000000
0.000000
-0.000000
-0.000000
0.000000
-0.000000
0.000000
0.000000
-0.000000
-0.000000
0.000000
0.000000
-0.000000
0.000000
0.000000
-0.000000
-0.000000
0.000000
-0.000000
0.000000
0.000000
-0.000000
-0.000000
0.000000
0.000000
-0.000000
0.000000
0.000000
-0.000000
-0.000000
0.000000
-0.000000
0.000000
0.000000
-0.000000
-0.000000
0.000000
0.000000
-0.000000
0.000000
0.000000
-0.000000
-0.000000
0.000000
-0.000000
0.000000
0.000000
-0.000000
-0.000000
0.000000
0.000000
-0.000000
-0.000000
-0.000000
0.000000
-0.000000
0.000000
0.000000
-0.000000
-0.000000
0.000000
0.000000
-0.000000
0.000000
0.000000
-0.000000
-0.000000
0.000000
-0.000000
0.000000
0.000000
-0.000000
-0.000000
0.000000
0.000000
-0.000000
0.000000
0.000000
-0.000000
-0.000000
0.000000
-0.000000
0.000000
0.000000
-0.000000
-0.000000
0.000000
0.000000
-0.000000
-0.000000
-0.000000
0.000000
0.000000
-0.000000
-0.000000
0.000000
0.000000
-0.000000
-0.000000
-0.000000
-0.000000
-0.000000
0.000000
0.000000
0.000000
-0.000000
0.000000
0.000000
-0.000000
-0.000000
0.000000
-0.000000
0.000000
0.000000
-0.000000
-0.000000
0.000000
0.000000
-0.000000
-0.000000
-0.000000
-0.000000
-0.000000
-0.000000
0.000000
0.000000
0.000000
0.000000
-0.000000
-0.000000
0.000000
0.000000
0.000000
-0.000000
0.000000
0.000000
-0.000000
-0.000000
0.000000
-0.000000
0.000000
0.000000
-0.000000
-0.000000
0.000000
0.000000
-0.000000
-0.000000
0.000000
0.000000
0.000000
-0.000000
-0.000000
-0.000000
0.000000
0.000000
-0.000000
-0.000000
-0.000000
-0.000000
0.000000
0.000000
-0.000000
0.000000
-0.000000
-0.000000
-0.000000
-0.000000
0.000000
0.000000
-0.000000
-0.000000
-0.000000
0.000000
0.000000
0.000000
-0.000000
-0.000000
0.000000
0.000000
0.000000
0.000000
-0.000000
-0.000000
-0.000000
0.000000
-0.000000
-0.000000
0.000000
-0.000000
0.000000
0.000000
-0.000000
0.000000
-0.000000
0.000000
-0.000000
-0.000000
0.000000
0.000000
0.000000
-0.000000
-0.000000
-0.000000
0.000000
0.000000
0.000000
0.000000
-0.000000
0.000000
0.000000
0.000000
0.000000
0.000000
-0.000000
-0.000000
0.000000
0.000000
-0.000000
-0.000000
0.000000
0.000000
0.000000
-0.000000
0.000000
-0.000000
0.000000
0.000000
0.000000
-0.000000
0.000000
0.000000
0.000000
0.000000
0.000000
-0.000000
0.000000
0.000000
-0.000000
0.000000
-0.000000
-0.000000
-0.000000
0.000000
0.000000
0.000000
0.000000
-0.000000
0.000000
-0.000000
0.000000
-0.000000
-0.000000
-0.000000
0.000000
-0.000000
0.000000
0.000000
0.000000
0.000000
-0.000000
-0.000000
0.000000
0.000000
-0.000000
-0.000000
0.000000
-0.000000
-0.000000
-0.000000
-0.000000
0.000000
0.000000
0.000000
-0.000000
-0.000000
-0.000000
-0.000000
0.000000
-0.000000
0.000000
0.000000
-0.000000
0.000000
0.000000
0.000000
0.000000
0.000000
0.000000
0.000000
0.000000
0.000000
0.000000
0.000000
-0.000000
0.000000
-0.000000
0.000000
-0.000000
-0.000000
-0.000000
0.000000
0.000000
0.000000
-0.000000
0.000000
-0.000000
0.000000
-0.000000
0.000000
0.000000
0.000000
0.000000
0.000000
0.000000
0.000000
-0.000000
-0.000000
-0.000000
0.000000
-0.000000
-0.000000
-0.000000
-0.000000
-0.000000
-0.000000
-0.000000
-0.000000
-0.000000
-0.000000
-0.000000
-0.000000
0.000000
0.000000
0.000000
-0.000000
-0.000000
0.000000
0.000000
-0.000000
-0.000000
-0.000000
-0.000000
0.000000
-0.000000
-0.000000
-0.000000
-0.000000
0.000000
-0.000000
-0.000000
-0.000000
0.000000
-0.000000
-0.000000
0.000000
0.000000
0.000000
-0.000000
-0.000000
-0.000000
0.000000
-0.000000
0.000000
0.000000
-0.000000
0.000000
0.000000
-0.000000
-0.000000
-0.000000
0.000000
0.000000
-0.000000
0.000000
-0.000000
0.000000
0.000000
-0.000000
0.000000
0.000000
-0.000000
-0.000000
0.000000
-0.000000
-0.000000
0.000000
-0.000000
0.000000
-0.000000
-0.000000
-0.000000
0.000000
-0.000000
-0.000000
0.000000
0.000000
0.000000
0.000000
0.000000
0.000000
0.000000
0.000000
0.000000
0.000000
0.000000
0.000000
-0.000000
-0.000000
-0.000000
0.000000
-0.000000
-0.000000
-0.000000
-0.000000
-0.000000
-0.000000
0.000000
0.000000
-0.000000
-0.000000
-0.000000
-0.000000
-0.000000
-0.000000
-0.000000
-0.000000
-0.000000
0.000000
0.000000
-0.000000
-0.000000
-0.000000
-0.000000
0.000000
0.000000
0.000000
0.000000
0.000000
0.000000
0.000000
-0.000000
-0.000000
-0.000000
-0.000000
0.000000
-0.000000
0.000000
-0.000000
-0.000000
-0.000000
-0.000000
0.000000
-0.000000
-0.000000
0.000000
0.000000
-0.000000
0.000000
-0.000000
0.000000
0.000000
0.000000
-0.000000
0.000000
-0.000000
0.000000
-0.000000
0.000000
-0.000000
-0.000000
-0.000000
0.000000
0.000000
0.000000
0.000000
0.000000
0.000000
0.000000
-0.000000
0.000000
-0.000000
-0.000000
-0.000000
-0.000000
0.000000
0.000000
0.000000
0.000000
0.000000
-0.000000
0.000000
0.000000
0.000000
0.000000
-0.000000
-0.000000
-0.000000
-0.000000
-0.000000
0.000000
-0.000000
0.000000
0.000000
-0.000000
-0.000000
0.000000
-0.000000
0.000000
0.000000
0.000000
-0.000000
-0.000000
0.000000
-0.000000
-0.000000
-0.000000
0.000000
-0.000000
0.000000
-0.000000
-0.000000
-0.000000
0.000000
0.000000
0.000000
0.000000
-0.000000
0.000000
0.000000
0.000000
-0.000000
-0.000000
0.000000
-0.000000
0.000000
-0.000000
-0.000000
-0.000000
-0.000000
-0.000000
0.000000
-0.000000
-0.000000
-0.000000
-0.011093
-0.009563
-0.003314
-0.010788
-0.004829
-0.014502
0.000000
-0.002987
-0.006779
0.000000
-0.011630
-0.000000
-0.005183
-0.004955
0.000000
-0.003512
0.000000
-0.003061
-0.003243
0.000000
-0.002967
-0.006761
-0.002619
-0.010694
-0.001920
-0.005689
-0.007985
0.000000
-0.006486
-0.004605
-0.010198
-0.002946
-0.006184
-0.005670
-0.005084
-0.010419
-0.002811
-0.002444
0.000000
-0.003779
-0.001806
0.000000
0.000000
-0.004308
-0.000000
-0.011164
-0.006536
-0.002084
-0.004752
0.000000
-0.003683
-0.007979
-0.004869
-0.003000
-0.000000
-0.007357
-0.007642
-0.003701
-0.002508
-0.002204
0.000000
-0.006411
-0.009619
-0.002507
-0.004448
0.000000
-0.000000
-0.001140
-0.005067
-0.001700
-0.006284
-0.006168
-0.004477
-0.007701
-0.005489
-0.006331
-0.005966
0.000000
-0.009644
-0.001878
-0.006464
0.000000
-0.002500
-0.006466
-0.007620
-0.004542
-0.001937
-0.004720
-0.006048
-0.009388
-0.010888
0.000000
-0.006144
-0.013533
-0.005061
-0.007241
-0.005051
-0.006220
-0.004447
-0.004829
-0.003909
-0.003838
-0.008312
-0.007302
-0.004300
-0.003115
-0.001718
-0.009462
-0.004640
0.000000
-0.000000
-0.003728
0.000000
-0.014240
-0.006574
0.000000
-0.002838
-0.003137
-0.012621
-0.000000
-0.001750
-0.003687
-0.000000
0.000000
0.000000
-0.003256
-0.005953
-0.006199
-0.000572
-0.004484
-0.008607
-0.001725
-0.001477
0.000000
-0.005952
-0.006425
-0.014642
-0.005606
-0.000781
-0.001118
0.000000
-0.006389
-0.000000
-0.006930
-0.000000
-0.004356
-0.008140
-0.000000
-0.004001
-0.002658
0.000000
-0.007397
-0.000000
-0.003048
0.000000
-0.009473
-0.004204
-0.006094
-0.005123
-0.007127
-0.004765
-0.000000
-0.000815
-0.002358
-0.003282
-0.000000
-0.007013
-0.001980
0.000000
-0.003584
0.000000
-0.005937
-0.004225
-0.000000
-0.004760
-0.009178
-0.004324
-0.000000
-0.002402
-0.000000
0.000000
-0.000000
-0.013071
-0.010918
0.000000
-0.009819
-0.000000
-0.001658
-0.001749
-0.009070
0.000000
-0.000780
-0.007486
-0.000000
-0.001469
-0.000478
-0.003206
-0.000722
-0.003027
-0.001020
-0.009301
0.000000
-0.011392
0.000000
-0.008022
-0.001891
-0.001939
0.000000
-0.001695
-0.000000
-0.007173
0.000000
-0.004681
-0.008057
-0.002910
-0.006589
-0.000270
0.000000
-0.005433
-0.002587
-0.000000
-0.000000
-0.000000
-0.000000
-0.005013
-0.012549
0.000000
0.000000
-0.000000
0.000000
0.000000
-0.003189
-0.000000
-0.000000
-0.001823
-0.000000
-0.012234
-0.003171
-0.005892
-0.005557
-0.002742
0.000000
-0.011875
-0.008264
-0.002046
0.000000
0.000000
-0.000000
0.000000
0.000000
-0.012992
-0.003693
-0.000000
0.000000
-0.002290
-0.005183
-0.001418
-0.010607
-0.001279
0.000000
-0.000000
-0.005393
-0.000000
0.000000
0.000000
-0.000793
-0.001447
0.000000
-0.001838
-0.002071
-0.003223
-0.002715
-0.014807
-0.001029
-0.000573
0.000000
-0.010073
-0.000000
0.000000
-0.009660
0.000000
-0.012177
0.000000
-0.005263
-0.001284
-0.001631
-0.005029
-0.000000
0.000000
-0.000000
-0.005606
-0.004012
-0.001050
-0.002864
-0.004881
-0.004888
0.000000
-0.000910
-0.011632
-0.009931
-0.008578
-0.000822
-0.001755
-0.001507
-0.000000
0.000000
-0.001868
-0.000000
-0.000000
-0.004466
-0.000000
-0.003406
-0.000000
-0.000652
0.000000
-0.001425
-0.000000
-0.001705
-0.000000
0.000000
-0.000595
-0.000898
-0.000000
-0.000000
-0.000000
0.000000
-0.003392
-0.000000
-0.001653
0.000000
-0.000000
-0.000000
-0.002856
-0.000000
0.000000
-0.004071
-0.000000
-0.002980
-0.000000
-0.001154
-0.002914
-0.004878
0.000000
0.000000
-0.000000
-0.001593
-0.002234
-0.000000
0.000000
-0.001674
-0.007290
0.000000
0.000000
-0.006736
0.000000
-0.004587
0.000000
-0.000898
-0.000669
-0.000000
-0.000000
-0.002689
-0.003309
-0.000000
-0.001783
-0.000650
-0.000000
-0.000000
-0.000000
-0.002092
-0.000000
-0.001283
0.000000
-0.002447
-0.001525
-0.001843
0.000000
0.000000
-0.000000
0.000000
-0.000000
-0.001535
-0.004920
-0.000000
-0.000000
-0.006268
-0.000000
-0.001444
-0.003993
-0.001645
-0.000000
0.000000
-0.000956
-0.005165
-0.003720
-0.005609
-0.005414
-0.008392
-0.000000
-0.003172
-0.002210
0.000000
-0.000582
-0.001009
-0.000509
-0.002141
-0.004819
0.000000
-0.000000
-0.013075
-0.004103
-0.000000
-0.000000
0.000000
-0.000000
-0.001428
-0.013268
-0.001394
0.000000
-0.007464
-0.001239
-0.001469
-0.000643
0.000000
0.000000
-0.011004
-0.006414
-0.000000
-0.001927
-0.000579
-0.002976
-0.003081
-0.003501
-0.002859
-0.004880
-0.002609
-0.000000
0.000000
-0.000181
-0.002789
-0.000551
-0.000000
-0.004993
-0.000546
-0.002768
-0.001027
-0.002623
-0.002163
-0.001192
-0.004136
-0.003763
-0.002822
-0.000000
-0.012687
-0.002407
-0.008906
0.000000
-0.008424
0.000000
-0.000000
-0.009690
0.000000
-0.000436
-0.000000
-0.004489
0.000000
0.000000
-0.000883
-0.000000
-0.000126
0.000000
0.000000
-0.000000
-0.000000
-0.003829
0.000000
-0.000000
0.000000
-0.000000
0.000000
-0.000000
-0.000874
0.000000
-0.012873
-0.000227
-0.002243
0.000000
-0.001922
-0.001783
0.000000
-0.000000
0.000000
-0.005805
-0.003565
-0.001789
-0.003969
-0.002036
-0.002415
-0.004351
-0.000000
-0.000000
-0.003200
-0.000000
-0.000000
-0.000274
-0.001432
-0.002593
-0.002066
-0.004314
-0.001252
-0.001560
-0.000000
0.000000
-0.004613
-0.001591
-0.004773
-0.001011
0.000000
-0.000000
0.000000
-0.000000
0.000000
-0.003685
-0.000977
-0.001067
0.000000
-0.003571
-0.001525
-0.000790
-0.005257
-0.000000
-0.002373
-0.001903
-0.000000
-0.012478
-0.001897
-0.003596
-0.001029
-0.001826
-0.001123
-0.000430
0.000000
-0.004895
-0.000000
-0.000000
-0.000000
-0.006290
-0.003624
0.000000
0.000000
-0.000000
0.000000
-0.007419
-0.005363
-0.002922
-0.004010
-0.001234
-0.001158
0.000000
0.000000
0.000000
0.000000
-0.000000
-0.003268
-0.001176
-0.000468
-0.000000
-0.005116
-0.000000
-0.002740
-0.000000
-0.001548
0.000000
0.000000
-0.004319
-0.000717
-0.000000
-0.004273
-0.006815
0.000000
-0.003300
-0.001108
0.000000
-0.000000
-0.000417
-0.004841
-0.004793
-0.000000
-0.000000
-0.014824
-0.001787
0.000000
0.000000
-0.001148
-0.001364
-0.000976
-0.001125
-0.005564
-0.001405
-0.000000
-0.000514
-0.001927
-0.003800
-0.002707
-0.001553
-0.003966
0.000000
-0.004627
-0.000863
-0.000000
-0.003447
-0.002715
0.000000
-0.001743
-0.002555
-0.007125
-0.004882
-0.003738
-0.000000
0.000000
0.000000
-0.004797
-0.000528
0.000000
-0.002274
-0.001169
-0.001547
-0.001030
0.000000
-0.000668
-0.007320
-0.002886
-0.000408
-0.001296
-0.000816
-0.000000
-0.010480
0.000000
0.000000
-0.001043
-0.000000
-0.002573
-0.005986
-0.002275
-0.003029
-0.002456
-0.001160
-0.002631
-0.001385
-0.001053
-0.001284
-0.000778
0.000000
-0.000436
-0.011612
-0.000379
-0.004347
-0.001318
-0.005454
0.000000
-0.001995
-0.000000
-0.000000
-0.015139
0.000000
-0.000478
-0.007914
-0.008897
-0.002896
-0.000875
-0.005645
-0.001253
-0.001440
-0.012598
-0.007891
-0.002701
0.000000
0.000000
-0.000873
-0.000000
-0.002695
-0.000000
-0.000703
-0.003870
-0.005074
-0.000000
-0.000000
0.000000
-0.000000
-0.002274
-0.007476
-0.000000
-0.000000
-0.004479
-0.003017
-0.003364
0.000000
-0.000120
-0.003490
0.000000
-0.000000
-0.003324
-0.000000
-0.000000
0.000000
-0.005001
-0.002888
-0.000000
-0.000964
0.000000
0.000000
-0.003241
-0.001448
-0.003272
0.000000
-0.002240
-0.000000
-0.002304
-0.000675
-0.003752
-0.000837
-0.001019
-0.000666
-0.000000
-0.000000
-0.000000
-0.001095
-0.002622
-0.003982
-0.007047
0.000000
-0.001795
-0.001096
0.000000
0.000000
-0.008308
-0.001053
0.000000
0.000000
0.000000
-0.000000
-0.001462
-0.002514
0.000000
-0.000937
-0.003365
-0.001017
-0.000000
-0.000000
0.000000
-0.000853
0.000000
-0.002295
-0.001032
-0.003733
-0.001373
-0.005715
-0.001740
-0.000000
-0.000000
-0.001213
-0.000000
-0.001617
-0.002349
-0.000000
-0.000000
-0.000000
-0.000000
-0.001996
-0.004728
-0.000000
-0.000000
-0.000187
-0.000789
-0.000000
-0.001083
-0.000000
-0.000000
-0.001411
-0.000000
-0.013401
0.000000
0.000000
0.000000
-0.009628
-0.000000
-0.000831
-0.005817
0.000000
-0.006828
-0.009258
0.000000
0.000000
-0.003195
-0.004041
-0.000735
-0.000000
0.000000
-0.000000
-0.006354
-0.002055
-0.002101
-0.000000
-0.000000
-0.000470
0.000000
0.000000
0.000000
-0.009345
0.000000
-0.002061
0.000000
-0.003180
-0.000000
-0.000000
-0.001940
-0.004067
-0.000000
-0.000000
-0.003119
-0.002536
-0.002470
-0.001271
-0.003552
0.000000
-0.000000
0.000000
-0.000660
-0.005043
-0.001861
-0.000000
-0.000000
0.000000
-0.002384
-0.003241
-0.000000
-0.005423
-0.003245
-0.002787
0.000000
0.000000
-0.000568
-0.005059
-0.000000
-0.002522
-0.004767
-0.000000
-0.000000
0.000000
-0.000974
-0.000570
0.000000
-0.003280
-0.000460
0.000000
-0.003276
-0.005196
-0.000000
-0.000000
-0.001541
-0.001632
-0.000000
0.000000
-0.002037
-0.000000
0.000000
-0.000000
-0.000000
-0.002883
-0.008173
-0.000707
0.000000
-0.008914
-0.000914
-0.001851
-0.002176
0.000000
-0.000727
-0.002972
-0.000663
-0.000000
0.000000
0.000000
-0.005778
-0.004580
0.000000
-0.003970
-0.002887
-0.000639
-0.005469
-0.000000
0.000000
-0.002744
-0.003409
-0.002288
0.000000
-0.001848
0.000000
-0.011070
-0.002154
0.000000
0.000000
-0.005281
-0.003076
-0.000000
-0.000000
-0.002375
-0.003694
-0.000000
-0.002654
-0.005639
-0.004896
-0.002379
-0.005666
-0.001632
-0.002347
-0.005793
-0.004180
-0.002159
0.000000
-0.007007
-0.005532
-0.000000
-0.000000
-0.004259
-0.000000
-0.000000
-0.002580
-0.000000
-0.002495
-0.007388
-0.001854
0.000000
-0.001630
0.000000
0.000000
-0.000493
-0.003187
-0.008523
-0.002679
-0.000000
-0.001676
-0.002279
-0.004445
0.000000
-0.000582
0.000000
-0.006908
-0.001484
-0.000000
-0.000605
-0.002138
-0.000189
-0.001070
-0.002598
-0.001421
0.000000
-0.000902
-0.001858
-0.002868
-0.007948
0.000000
-0.000000
-0.001234
-0.009030
-0.007219
-0.005895
-0.004014
0.000000
-0.002033
-0.003867
-0.000474
-0.003180
-0.005962
-0.005274
0.000000
-0.000000
-0.008733
-0.002092
-0.009026
-0.000000
-0.002867
-0.000000
-0.002895
-0.007816
-0.006716
-0.006358
-0.000000
-0.003220
-0.005381
-0.001686
0.000000
-0.001674
-0.002400
-0.009830
-0.004351
-0.000781
-0.002345
-0.011057
-0.001382
-0.000000
-0.008698
-0.007538
-0.002376
0.000000
-0.005574
-0.005005
0.000000
0.000000
-0.003681
-0.000000
-0.002458
-0.001528
-0.001566
-0.009210
-0.010815
-0.001011
-0.001848
-0.007096
0.000000
-0.004190
-0.005357
-0.008079
-0.000625
-0.011162
-0.006689
-0.004058
-0.010402
-0.005047
-0.000000
-0.008338
0.000000
-0.000000
-0.011345
0.000000
-0.000680
-0.001792
-0.003581
-0.000000
-0.004584
0.000000
-0.007057
-0.007183
0.000000
-0.004109
-0.001043
0.000000
-0.009178
-0.001342
0.000000
-0.007320
-0.008304
-0.001585
-0.008447
-0.001031
-0.010848
-0.007793
-0.000000
-0.001280
-0.011707
-0.003012
-0.011046
0.000000
-0.001897
-0.007107
-0.001384
-0.004424
-0.001071
-0.001044
-0.002443
-0.008219
-0.000350
-0.002812
-0.012523
-0.006808
-0.001798
-0.010944
-0.000460
0.000000
-0.001967
-0.001425
0.000000
0.000000
-0.002675
0.000000
-0.004504
-0.000746
-0.001606
0.000000
-0.006015
-0.006115
-0.007271
-0.008099
-0.013211
-0.011685
0.000000
0.000000
-0.001524
0.000000
-0.003160
-0.005084
-0.002207
0.000000
0.000000
-0.001667
-0.002032
0.000000
-0.004625
-0.005582
0.000000
0.000000
0.000000
-0.003300
0.000000
0.000000
-0.003840
-0.003059
-0.002608
0.000000
0.000000
-0.003531
-0.001031
-0.002417
-0.004780
-0.005326
-0.009304
-0.002217
0.000000
-0.002962
-0.001943
0.000000
0.000000
0.000000
0.000000
-0.001452
-0.012517
-0.009309
0.000000
-0.006523
-0.004325
-0.004077
-0.010267
0.000000
-0.007792
-0.007862
-0.007569
0.000000
-0.002890
-0.006356
-0.004027
0.000000
0.000000
-0.003427
0.000000
-0.003564
-0.004217
CELL_DATA 7397
SCALARS region int 1
LOOKUP_TABLE mat
         0
         0
         0
         0
         0
         0
         0
         0
         0
         0
         0
         0
         0
         0
         0
         0
         0
         0
         0
         0
         0
         0
         0
         0
         0
         0
         0
         0
         0
         0
         0
         0
         0
         0
         0
         0
         0
         0
         0
         0
         0
         0
         0
         0
         0
         0
         0
         0
         0
         0
         0
         0
         0
         0
         0
         0
         0
         0
         0
         0
         0
         0
         0
         0
         0
         0
         0
         0
         0
         0
         0
         0
         0
         0
         0
         0
         0
         0
         0
         0
         0
         0
         0
         0
         0
         0
         0
         0
         0
         0
         0
         0
         0
         0
         0
         0
         0
         0
         0
         0
         0
         0
         0
         0
         0
         0
         0
         0
         0
         0
         0
         0
         0
         0
         0
         0
         0
         0
         0
         0
         0
         0
         0
         0
         0
         0
         0
         0
         0
         0
         0
         0
         0
         0
         0
         0
         0
         0
         0
         0
         0
         0
         0
         0
         0
         0
         0
         0
         0
         0
         0
         0
         0
         0
         0
         0
         0
         0
         0
         0
         0
         0
         0
         0
         0
         0
         0
         0
         0
         0
         0
         0
         0
         0
         0
         0
         0
         0
         0
         0
         0
         0
         0
         0
         0
         0
         0
         0
         0
         0
         0
         0
         0
         0
         0
         0
         0
         0
         0
         0
         0
         0
         0
         0
         0
         0
         0
         0
         0
         0
         0
         0
         0
         0
         0
         0
         0
         0
         0
         0
         0
         0
         0
         0
         0
         0
         0
         0
         0
         0
         0
         0
         0
         0
         0
         0
         0
         0
         0
         0
         0
         0
         0
         0
         0
         0
         0
         0
         0
         0
         0
         0
         0
         0
         0
         0
         0
         0
         0
         0
         0
         0
         0
         0
         0
         0
         0
         0
         0
         0
         0
         0
         0
         0
         0
         0
         0
         0
         0
         0
         0
         0
         0
         0
         0
         0
         0
         0
         0
         0
         0
         0
         0
         0
         0
         0
         0
         0
         0
         0